file 8453461 1681916797                                         
version 3
run MD1-0-20230419-11:06:15-44393
attr configname MD1
attr datetime 20230419-11:06:15
attr datetimef 20230419-110615
attr experiment MD1
attr inifile omnetpp.ini
attr iterationvars ""
attr iterationvarsd ""
attr iterationvarsf ""
attr measurement ""
attr network MX1_Network
attr processid 44393
attr repetition 0
attr replication #0
attr resultdir results
attr runnumber 0
attr seedset 0
config network MX1_Network
config **.server.serviceTime 0.75s
config network MX1_Network
config **.source.interArrivalTime exponential(1.0s)
config **.source.numJobs 100000

vector 0 MX1_Network.passiveQueue queueLength:vector ETV
attr interpolationmode sample-hold
attr recordingmode vector
attr title "queue length"
0	717 8 0 0 0 0 1 0 0 0 0
vector 1 MX1_Network.sink lifeTime:vector ETV
attr interpolationmode none
attr recordingmode vector
attr title "lifetime of arrived jobs"
attr unit s
1	875 24 5 5 1.545874504566 1.545874504566 1 0.75 0.75 0.75 0.5625
1	899 24 10 10 2.44443489305 2.44443489305 1 0.75 0.75 0.75 0.5625
1	923 25 15 15 3.700365651097 3.700365651097 1 0.75 0.75 0.75 0.5625
0	948 929408 40 108591 10.901952011382 21554.574787829153 32768 0 14 64416 234888
1	930356 1290119 20 163857 5.559969863172 32451.632738613487 32768 0.75 10.507848813469 62269.529840086 177096.71484653
0	2220475 979710 108620 217820 21565.924714126604 43438.805426881721 32768 0 13 65384 242492
0	3200185 979788 217824 326706 43439.352010234209 65070.964772363859 32768 0 20 66008 260184
1	4179973 1319728 163864 327697 32452.382738613487 65246.765513100943 32768 0.75 15.169289609623 60493.529689115 169859.71511797
0	5499701 979630 326710 435491 65071.401121645505 86657.998498408343 32768 0 13 66220 248840
1	6479331 1322751 327700 491537 65247.515513100943 97699.931914889994 32768 0.75 9.930309923999 61899.094546459 174233.44023851
0	7802082 583478 435520 499997 86667.846477628101 99404.262998950199 19512 0 12 38816 140548
1	8385560 67900 491544 500001 97700.681914889994 99405.012998950199 1693 0.75 7.385676768229 3185.5872465931 8832.7580369509

