file 89302286 1682458994                                        
version 3
run MD1-0-20230425-17:42:50-7778
attr configname MD1
attr datetime 20230425-17:42:50
attr datetimef 20230425-174250
attr experiment MD1
attr inifile omnetpp.ini
attr iterationvars ""
attr iterationvarsd ""
attr iterationvarsf ""
attr measurement ""
attr network MX1_Network
attr processid 7778
attr repetition 0
attr replication #0
attr resultdir results
attr runnumber 0
attr seedset 0
config network MX1_Network
config **.server.serviceTime 0.75s
config network MX1_Network
config **.source.interArrivalTime exponential(1.0s)
config **.source.numJobs 1000000

vector 0 MX1_Network.passiveQueue queueLength:vector ETV
attr interpolationmode sample-hold
attr recordingmode vector
attr title "queue length"
vector 1 MX1_Network.sink lifeTime:vector ETV
attr interpolationmode none
attr recordingmode vector
attr title "lifetime of arrived jobs"
attr unit s
0	866 929386 0 108590 0 21554.096089531832 32768 0 14 64416 234888
1	930252 1290084 5 163840 1.545874504566 32448.531699272991 32768 0.75 10.507848813469 62269.385091671 177096.4767718
0	2220336 979710 108591 217819 21554.574787829153 43438.197577129578 32768 0 13 65382 242488
0	3200046 979788 217820 326703 43438.805426881721 65070.214772363859 32768 0 20 66010 260188
1	4179834 1319707 163847 327684 32449.788244836872 65244.515513100943 32768 0.75 15.169289609623 60491.742735382 169855.1915273
0	5499541 979630 326706 435490 65070.964772363859 86657.469471613619 32768 0 13 66220 248840
1	6479171 1322781 327687 491520 65245.265513100943 97696.147622927488 32768 0.75 9.930309923999 61901.026248608 174238.20190391
0	7801952 991772 435491 544428 86657.998498408343 108342.725822438699 32768 0 13 64646 235528
0	8793724 1012542 544429 652778 108342.771956985967 129815.361572667609 32768 0 15 70490 286180
1	9806266 1351527 491525 655364 97697.193836195211 130326.703774532097 32768 0.75 11.880806689337 63249.355692966 186817.94400558
0	11157793 1012308 652782 762853 129815.907116867363 152010.670795881588 32768 0 16 65424 247924
1	12170101 1353069 655367 819200 130327.453774532097 163165.786794734102 32768 0.75 12.539946433884 61078.730715669 170059.98115778
0	13523170 1012242 762856 872135 152011.420795881588 173941.019932359051 32768 0 15 65326 244584
0	14535412 1012513 872136 982551 173941.26889665051 196231.675919438067 32768 0 20 65248 273188
1	15547925 1350714 819207 983042 163166.621457026726 196332.177684733888 32768 0.75 15.743132139055 60879.324464778 180914.54157214
0	16898639 1040246 982555 1092265 196231.863564783694 218299.637764160792 32768 0 19 66966 270176
1	17938885 1381953 983045 1146884 196332.927684733888 229254.197562645488 32768 0.75 14.704113236825 61917.782707709 180712.09810888
0	19320838 1045236 1092266 1202215 218300.285018832005 240293.76965331547 32768 0 15 67014 260016
1	20366074 1384978 1146889 1310728 229254.947562645488 262083.748233389402 32768 0.75 11.547143515946 61562.915743515 179412.30633589
0	21751052 1045206 1202217 1312123 240294.200038003687 262407.838263270902 32768 0 15 64668 253040
0	22796258 1045067 1312127 1422883 262408.196062772457 284849.582332943634 32768 0 13 61712 214388
1	23841325 1384482 1310731 1474560 262084.498233389402 295125.297219132497 32768 0.75 10.421155618366 60180.121645123 165407.14263135
0	25225807 1045370 1422886 1531459 284850.332332943634 306423.55176265915 32768 0 16 67102 262640
1	26271177 1387539 1474567 1638404 295126.076306227774 327713.089555514972 32768 0.75 12.363193118324 62302.966937034 181517.08438629
0	27658716 1045187 1531460 1640440 306423.691689028514 328135.472676151943 32768 0 14 67062 264144
0	28703903 1045255 1640442 1749918 328135.715968433948 350138.593522590629 32768 0 15 68034 273680
1	29749158 1385837 1638409 1802240 327713.839555514972 360646.469154889423 32768 0.75 14.004042191995 61799.934229753 179715.20756891
0	31134995 1045343 1749921 1859383 350139.343522590629 372133.305791264678 32768 0 18 63016 232404
1	32180338 1387298 1802247 1966086 360649.468176946362 393386.865262627439 32768 0.75 12.480067346355 63013.849344894 191132.95461351
0	33567636 1045474 1859387 1967863 372133.33544914074 393731.751918610921 32768 0 16 71176 308720
0	34613110 1045454 1967864 2078062 393732.095845534325 416035.803486110576 32768 0 15 64706 247176
1	35658564 1385183 1966093 2129922 393387.615262627439 426417.167785231944 32768 0.75 11.856900228246 60402.588895932 167346.03282057
0	37043747 1044781 2078066 2186759 416036.225069164852 437776.954210191446 32768 0 12 63662 225208
1	38088528 1387628 2129925 2293762 426417.917785231944 459077.260698903622 32768 0.75 13.053834655477 62502.508567975 182728.79159266
0	39476156 1045611 2186761 2295930 437776.99222437803 459506.325313433834 32768 0 17 68320 278196
0	40521767 1045172 2295932 2404793 459506.505835951967 481206.790988291024 32768 0 14 65870 248312
1	41566939 1387448 2293765 2457606 459078.010698903622 491611.736757023413 32768 0.75 11.129049870754 61809.975911311 175294.22687686
0	42954387 1045337 2404794 2513153 481207.370213416221 502623.027004590162 32768 0 20 67834 283864
0	43999724 1044889 2513156 2620573 502623.777004590162 523824.735555746473 32768 0 13 67334 253148
1	45044613 1389305 2457611 2621440 491612.486757023413 524007.671843606229 32768 0.75 15.281333410168 63302.28133108 190175.33810396
0	46433918 1044886 2620576 2728298 523825.485555746473 545107.388664779162 32768 0 14 63504 225320
1	47478804 1386718 2621445 2785280 524009.136791012922 556849.777946441136 32768 0.75 11.026202444258 59553.025935728 157622.75407583
0	48865522 1045201 2728301 2837532 545108.138664779162 567099.316774619074 32768 0 14 64172 232544
0	49910723 1044959 2837535 2946510 567100.066774619074 588925.488295357019 32768 0 14 65818 252628
1	50955682 1388386 2785289 2949120 556851.388267794289 589446.132202402104 32768 0.75 10.550317978222 62746.644247147 182398.70460587
0	52344068 1045315 2946511 3055033 588925.783141101251 610492.762613170435 32768 0 19 70030 298220
1	53389383 1386664 2949125 3112962 589450.270275539962 622130.937971619671 32768 0.75 14.871888037481 62475.648559788 185790.63029146
0	54776047 1045183 3055036 3165052 610493.512613170435 632700.721694461712 32768 0 22 65516 270860
0	55821230 1045241 3165055 3273048 632701.471694461712 654071.421514672937 32768 0 14 68406 262684
1	56866471 1387284 3112965 3276802 622131.687971619671 654857.079181601427 32768 0.75 16.614798023417 63282.068233562 191722.26843544
0	58253755 1045070 3273051 3382403 654072.171514672937 675946.179696623398 32768 0 19 66412 262636
1	59298825 1386328 3276805 3440654 654857.829181601427 687666.248749156177 32768 0.75 14.376390547334 62067.740953511 180806.29422554
0	60685153 1045673 3382404 3491479 675946.323478038625 697702.129890390163 32768 0 14 67766 265612
0	61730826 1044886 3491480 3601228 697702.510292325937 719709.291162089654 32768 0 13 61464 206668
1	62775712 1386692 3440659 3604484 687666.998749156177 720322.646969846024 32768 0.75 10.993283625952 60489.450957411 164798.38449001
0	64162404 1045768 3601232 3709248 719709.519547666738 741253.668636381363 32768 0 16 69190 287924
1	65208172 1388348 3604489 3768322 720323.396969846024 753091.528704571193 32768 0.75 12.318909531118 62588.132174987 186026.44739463
0	66596520 1045395 3709252 3819592 741254.136571965857 763450.508606938537 32768 0 16 62676 229076
0	67641915 1045182 3819594 3929639 763450.560481808358 785598.47182021476 32768 0 12 63830 228912
1	68687097 1384059 3768325 3932166 753092.278704571193 786106.249684703678 32768 0.75 10.271029258521 59853.724060626 162762.46053105
0	70071156 1045155 3929640 4038849 785598.614118854385 807453.979898063845 32768 0 14 64738 232884
1	71116311 1385730 3932171 4096014 786106.999684703678 819057.62413682986 32768 0.75 11.666370661356 62198.439142711 178827.00994866
0	72502041 1045101 4038850 4148415 807454.297793324379 829569.635565296651 32768 0 15 68188 270664
0	73547142 1044938 4148416 4257000 829570.255723644624 851225.527178479389 32768 0 20 69342 294976
1	74592080 1386849 4096019 4259842 819058.37413682986 851793.538346607243 32768 0.75 15.351579359348 62553.540842626 186393.06516598
0	75978929 1044997 4257001 4367525 851225.901161733754 873496.578754581395 32768 0 16 62364 235144
1	77023926 1384990 4259845 4423696 851794.288346607243 884654.712382931855 32768 0.75 12.419664871428 60588.694816032 171361.29764937
0	78408916 1045259 4367526 4476867 873497.236432200942 895378.364072429045 32768 0 17 65190 245624
0	79454175 1045251 4476871 4586705 895378.610992064514 917386.892729177711 32768 0 15 64266 237892
1	80499426 1384845 4423699 4587522 884655.462382931855 917533.161776047137 32768 0.75 13.268278979805 60231.629286451 166860.03413941
0	81884271 1045460 4586706 4695688 917386.94103750916 939155.860933220937 32768 0 14 65958 250520
1	82929731 1386452 4587525 4751360 917533.911776047137 950257.495637177273 32768 0.75 10.986327802848 61208.228233453 172188.8086597
0	84316183 1045244 4695692 4806027 939156.327196745774 961338.370564521316 32768 0 18 64030 251544
1	85361427 1384183 4751365 4915210 950259.846928572704 983284.584016518709 32768 0.75 13.921124603458 60017.437902853 169929.98060813
0	86745610 1045179 4806030 4916038 961339.120564521316 983440.882331916188 32768 0 13 63174 230752
0	87790789 794902 4916041 4999991 983441.632331916188 1000418.52606297138 24903 0 13 48053 172771
1	88585691 716594 4915213 5000001 983285.334016518709 1000420.294084041166 16960 0.75 10.21171056995 30867.967536958 83483.972209793

