file 91958467 1682461193                                        
version 3
run MM1-0-20230425-18:19:29-8503
attr configname MM1
attr datetime 20230425-18:19:29
attr datetimef 20230425-181929
attr experiment MM1
attr inifile omnetpp.ini
attr iterationvars ""
attr iterationvarsd ""
attr iterationvarsf ""
attr measurement ""
attr network MX1_Network
attr processid 8503
attr repetition 0
attr replication #0
attr resultdir results
attr runnumber 0
attr seedset 0
config network MX1_Network
config **.server.serviceTime exponential(0.75s)
config network MX1_Network
config **.source.interArrivalTime exponential(1.0s)
config **.source.numJobs 1000000

vector 0 MX1_Network.passiveQueue queueLength:vector ETV
attr interpolationmode sample-hold
attr recordingmode vector
attr title "queue length"
vector 1 MX1_Network.sink lifeTime:vector ETV
attr interpolationmode none
attr recordingmode vector
attr title "lifetime of arrived jobs"
attr unit s
0	879 931672 0 110201 0 22030.662418820686 32768 0 20 106634 653164
1	932551 1369219 7 163840 1.737822573102 32801.643265427661 32768 0.000155231797 21.717618400019 90933.203698932 480104.93592453
0	2301770 981329 110203 220485 22031.184238814213 43996.454984764806 32768 0 22 111804 729160
1	3283099 1403142 163847 327680 32803.061134839683 65265.752722383646 32768 0.000187985466 27.164478175569 101504.251879 647047.89554321
0	4686241 981765 220487 329625 43996.914359552407 65668.26049463976 32768 0 30 118960 919044
0	5668006 981491 329626 437572 65668.451937125134 87305.71250387092 32768 0 31 115640 801812
1	6649497 1403058 327689 491522 65267.9377645983 98153.605337460057 32768 0.000479175663 23.357205275656 101753.09558755 645581.34544986
0	8052555 995523 437573 547779 87305.749052941322 109575.659919769082 32768 0 30 113332 844496
1	9048078 1433690 491527 655364 98154.368817933051 131227.210946290653 32768 3.5576784e-05 25.507390658012 91088.373560892 499998.37406558
0	10481768 1013947 547780 657994 109575.850411049857 131770.567190581913 32768 0 24 107866 700020
0	11495715 1014224 657996 767196 131772.08047704724 153645.504294616865 32768 0 22 111112 710724
1	12509939 1435573 655367 819204 131227.339513720009 164001.963382798372 32768 1.4921682e-05 22.737537254483 98026.229362352 579133.83717348
0	13945512 1014243 767197 876950 153646.081848806302 175553.391493594137 32768 0 25 112728 780672
1	14959755 1435865 819211 983048 164003.074442828343 196764.590816869623 32768 1.0970769e-05 21.831573981282 99178.720546291 600496.67734865
0	16395620 1014875 876952 985840 175553.730129886797 197340.374635115547 32768 0 26 118574 856016
0	17410495 1042566 985841 1094568 197341.821594620485 219187.15936643817 32768 0 28 113402 760632
1	18453061 1465102 983053 1146912 196765.613188489464 229607.887870962201 32768 4.1562469e-05 25.766863604948 99554.84555067 591672.89636168
0	19918163 1047160 1094569 1204675 219187.299100357582 241184.57796558547 32768 0 24 111508 762316
1	20965323 1468164 1146919 1310726 229609.146336571019 262195.954807242467 32768 7.3596895e-05 25.610214876963 93556.425025437 533833.84740321
0	22433487 1047067 1204676 1314500 241184.992413447562 262903.328475540546 32768 0 23 113932 767036
0	23480554 1047471 1314504 1423623 262903.36056390365 284702.500899981047 32768 0 28 116280 818964
1	24528025 1468644 1310737 1474564 262198.570546524914 294888.688840188164 32768 3.4034442e-05 23.828578634235 98364.360961356 584577.02115776
0	25996669 1046902 1423627 1533035 284702.587782350547 306655.116749110623 32768 0 28 111672 785272
1	27043571 1468479 1474567 1638400 294890.458594119659 327541.48606740524 32768 0.00010372362 29.842600231873 100297.019754 635638.39398351
0	28512050 1047282 1533036 1640707 306655.463296343991 327977.978669691667 32768 0 29 118512 861660
0	29559332 1047569 1640711 1748480 327978.10873765111 349396.131474110091 32768 0 26 123648 922908
1	30606901 1468705 1638405 1802240 327545.048461289924 360138.152038125235 32768 0.00012230875 25.399907017111 102426.94547613 635636.13533033
0	32075606 1047213 1748482 1858405 349396.745750644697 371499.702043061939 32768 0 28 114906 805904
1	33122819 1468344 1802247 1966080 360139.399603338945 393131.3967719392 32768 0.000209018083 26.506976370896 97922.509841897 579195.38077723
0	34591163 1046867 1858407 1968300 371500.287536834299 393586.281787271512 32768 0 20 113152 727300
0	35638030 1047380 1968301 2076995 393586.883375317994 415423.817404526963 32768 0 23 118380 816924
1	36685410 1468411 1966087 2129920 393133.755165185158 426033.866554010795 32768 1.6630928e-05 21.323077923991 98381.871006321 577424.4037089
0	38153821 1047006 2076997 2187483 415424.11277483151 437685.868108756215 32768 0 20 110210 703256
1	39200827 1468512 2129925 2293764 426036.851955096153 458942.973659401957 32768 0.000117689582 27.202961277883 99392.529075755 603870.41265344
0	40669339 1047589 2187485 2296708 437686.678184991149 459526.831251933974 32768 0 29 121802 918364
0	41716928 1047364 2296711 2405458 459527.149926654152 481277.670865294517 32768 0 23 120306 856676
1	42764292 1468650 2293767 2457600 458943.120121711248 491723.497306063365 32768 6.264451e-06 20.417193332211 103681.10510939 642932.70531877
0	44232942 1046765 2405461 2515263 481277.756697343472 503497.674926679519 32768 0 33 113056 777584
1	45279707 1468315 2457611 2621452 491724.185155368739 524726.449327571495 32768 2.0886771e-05 28.546186857892 94746.109292446 532798.80839472
0	46748022 1046937 2515267 2624298 503498.567386182341 525299.957305955448 32768 0 27 112682 756108
0	47794959 1047395 2624299 2731953 525301.044162636428 546536.202569150241 32768 0 26 123002 914044
1	48842354 1468638 2621455 2785286 524726.586912118522 557203.527200163243 32768 0.000163181624 32.557270979945 101985.50430826 641791.33882873
0	50310992 1047337 2731956 2841533 546538.560739186335 568537.111261195111 32768 0 21 111302 736868
1	51358329 1468763 2785293 2949120 557204.642596376369 590109.738383686913 32768 2.59489e-05 32.044823308272 101520.74952818 677809.79171956
0	52827092 1047421 2841535 2950530 568537.596446763858 590424.332642029569 32768 0 33 120206 988428
0	53874513 1047021 2950532 3058877 590424.500544973941 612241.964629849933 32768 0 26 114400 770596
1	54921534 1468625 2949125 3112966 590111.421869447863 623103.328580514332 32768 4.2845322e-05 23.096924231513 99439.234890542 587082.4516555
0	56390159 1046857 3058881 3167030 612242.360177768852 633933.045409142413 32768 0 22 111948 719104
0	57437016 1046367 3167031 3276668 633933.378372612531 656028.163494848369 32768 0 22 105748 634768
1	58483383 1468281 3112975 3276802 623104.655211988259 656057.065517095405 32768 4.0945667e-05 24.545180359215 94317.098896255 513201.05482634
0	59951664 1046486 3276671 3386283 656028.892074737865 678134.939929712203 32768 0 26 110190 713872
1	60998150 1468314 3276805 3440642 656057.324160362038 688878.605439932727 32768 4.36289e-05 21.060896580708 98411.513331057 561973.15193228
0	62466464 1047204 3386284 3492709 678135.012781320385 699280.619035698076 32768 0 26 122878 892900
0	63513668 1046670 3492710 3601168 699280.918216510165 720937.915746753288 32768 0 20 109532 678764
1	64560338 1468287 3440647 3604490 688881.454149810353 721593.534683209495 32768 0.000117966403 23.506423750277 99883.859592974 587458.29800829
0	66028625 1047431 3601171 3709450 720938.513730924844 742439.429492262864 32768 0 30 118466 871948
1	67076056 1468478 3604497 3768324 721596.154633574397 754325.675511419738 32768 3.5278339e-05 23.844324427633 99888.826558804 613790.0548385
0	68544534 1046935 3709453 3819732 742439.512612776009 764604.983963421289 32768 0 23 114782 779712
0	69591469 1046556 3819735 3930734 764605.393561387707 786991.606928819495 32768 0 23 105996 666200
1	70638025 1468209 3768327 3932160 754326.110154044926 787286.161874923742 32768 6.0942404e-05 22.027021423622 93877.417943762 534994.44060093
0	72106234 1047602 3930735 4038565 786991.908665143891 808455.888023793288 32768 0 31 126238 1034476
1	73153836 1468400 3932165 4096000 787288.11863676149 820066.47925405007 32768 8.793192e-06 28.569423712585 101257.84120508 642754.93897802
0	74622236 1046821 4038567 4148075 808455.949557896859 830400.23684935951 32768 0 33 112680 830056
0	75669057 1047309 4148076 4257043 830400.241135274418 852196.377171074923 32768 0 24 117244 822084
1	76716366 1468498 4096005 4259840 820067.058416630178 852710.165764709276 32768 0.000136917439 28.291299308648 100566.07804584 628416.5304926
0	78184864 1046878 4257047 4366448 852196.667279756832 874170.547900165648 32768 0 24 108608 698748
1	79231742 1468226 4259847 4423688 852710.75560308139 885520.63729619598 32768 2.123236e-05 20.161378718085 93858.783579227 518565.90372017
0	80699968 1046826 4366452 4476257 874170.999707076862 896218.296710475105 32768 0 23 107114 669908
0	81746794 1047274 4476259 4585452 896218.53717700194 918389.114895879305 32768 0 26 116682 818928
1	82794068 1468384 4423691 4587524 885521.220300635465 918806.621370069492 32768 0.000267969464 26.072295826738 98281.349679727 582828.99528065
0	84262452 1046742 4585456 4693454 918389.47259323955 939778.586291336308 32768 0 22 113322 738288
1	85309194 1468419 4587527 4751368 918806.668643850206 951416.716204827697 32768 5.9685192e-05 34.808066388045 99845.54189533 639865.51455724
0	86777613 1047344 4693456 4802808 939779.155363251153 961650.257738857052 32768 0 44 120186 982652
0	87824957 1047376 4802811 4910088 961650.312382904077 982913.198114005565 32768 0 26 119134 826156
1	88872333 1468700 4751371 4915202 951418.198273781359 983960.223276824617 32768 8.0908938e-05 19.979740980074 100586.33474856 591839.83753737
0	90341033 856277 4910092 4999997 982913.235363889988 1001182.130593870732 26753 0 25 90900 577144
1	91197310 761156 4915207 5000001 983961.385018923885 1001183.007907792784 16960 0.000366189259 27.402968655228 50339.131486908 290437.41597806

