version 3
run General-0-20230509-01:46:03-93183
attr configname General
attr datetime 20230509-01:46:03
attr datetimef 20230509-014603
attr experiment General
attr inifile omnetpp.ini
attr iterationvars ""
attr iterationvarsd ""
attr iterationvarsf ""
attr measurement ""
attr network Design1
attr processid 93183
attr repetition 0
attr replication #0
attr resultdir results
attr runnumber 0
attr seedset 0
config network Design1
config **.source.interArrivalTime exponential(7.2s)
config **.source.numJobs 10000
config **.server1.serviceTime 3s
config **.server2.serviceTime 3s
config **.server3.serviceTime 3s

vector 0 Design1.customQueue1 queueLength:vector ETV
attr interpolationmode sample-hold
attr recordingmode vector
attr title "queue length"
vector 1 Design1.customQueue2 queueLength:vector ETV
attr interpolationmode sample-hold
attr recordingmode vector
attr title "queue length"
vector 2 Design1.customQueue3 queueLength:vector ETV
attr interpolationmode sample-hold
attr recordingmode vector
attr title "queue length"
0	0	0	0
1	0	0	0
2	0	0	0
vector 3 Design1.customSink lifeTime:vector ETV
attr interpolationmode none
attr recordingmode vector
attr title "lifetime of arrived jobs"
attr unit s
3	7	10.016010718588	4.285714285714
0	51	83.496630752379	1
0	52	84.975420692561	0
0	91	122.955375206144	1
0	92	125.158355074882	0
0	359	405.789267619138	1
0	360	410.151713719215	0
0	387	431.846611386153	1
0	388	432.517823336524	0
0	485	545.857694439519	1
0	491	550.015978718317	0
0	603	681.39110950226	1
0	604	683.690754209197	0
0	651	742.956828111961	1
0	657	744.746536781007	0
0	728	822.719562630781	1
0	734	823.231821628078	0
0	896	970.637247144361	1
0	897	971.368094937607	0
0	952	1017.351464866884	1
0	953	1018.515056668596	0
0	1143	1177.436162917565	1
0	1147	1180.014574385268	0
0	1260	1268.233684252764	1
0	1266	1270.200959077669	0
0	1363	1345.800328646113	1
0	1364	1347.587149697996	0
0	1377	1349.861745975759	1
0	1378	1352.087149697996	0
0	1384	1352.143983110936	1
0	1388	1352.329945030802	2
0	1396	1355.087149697996	1
0	1398	1355.087149697996	0
0	1469	1427.298349370001	1
0	1478	1430.701800979616	2
0	1482	1430.76334671386	3
0	1488	1432.941010779651	2
0	1490	1432.941010779651	1
0	1497	1435.941010779651	0
0	1503	1437.225198068585	1
0	1511	1444.941010779651	0
0	1621	1593.529877859003	1
0	1622	1596.772557724347	0
0	1633	1602.648374940155	1
0	1636	1605.772557724347	0
0	1824	1834.115509905426	1
0	1830	1837.884358757243	0
0	1844	1843.222856374527	1
0	1848	1847.982630940501	2
0	1849	1848.25466314666	1
0	1851	1848.25466314666	0
0	1871	1869.31725076638	1
0	1872	1874.649365492788	0
0	1892	1887.485098338837	1
0	1898	1893.7482413132	0
0	1955	1952.498223636086	1
0	1956	1953.682817965771	0
0	1962	1954.809406772915	1
0	1968	1958.182817965771	0
0	2051	2026.779431566596	1
0	2059	2033.440750573143	0
0	2193	2220.328124449256	1
0	2194	2220.716748268572	0
0	2200	2224.08961500136	1
0	2208	2229.716748268572	0
0	2291	2307.8963356325	1
0	2300	2311.853141290709	2
0	2301	2312.392403568795	1
0	2318	2316.892403568795	0
0	2896	2902.989080211521	1
0	2899	2907.164975949556	0
0	2982	2985.053231190691	1
0	2986	2987.40173293286	2
0	2994	2993.832379285771	1
0	2996	2993.832379285771	0
0	3119	3109.504519042904	1
0	3120	3109.604589901551	0
0	3186	3192.477723645618	1
0	3195	3197.560305697294	2
0	3196	3197.72188071766	1
0	3199	3202.22188071766	0
0	3254	3250.833376376781	1
0	3260	3255.468550817219	0
0	3372	3358.657289492174	1
0	3373	3364.148474101971	0
0	3428	3480.673837870907	1
0	3434	3484.898388153311	0
0	3703	3678.128910566876	1
0	3704	3678.309105438621	0
0	3777	3746.726026319848	1
0	3778	3749.111907041985	0
0	3903	3901.816349053998	1
0	3904	3901.85641063328	0
0	3929	3923.143261404058	1
0	3932	3926.700368434432	0
0	3945	3935.994585492446	1
0	3949	3937.016379206901	2
0	3950	3939.584113246173	1
0	3953	3948.584113246173	0
0	4098	4140.282379333964	1
0	4099	4142.546527326071	0
0	4385	4423.008662218981	1
0	4386	4423.136458104097	0
0	4593	4727.414444181557	1
0	4596	4731.592976200611	0
0	4748	4853.227593057256	1
0	4749	4859.553894239991	0
0	4810	4929.675463537034	1
0	4811	4932.193605721319	0
0	4866	4967.000057353657	1
0	4867	4968.1887134917	0
0	4943	5011.693493720086	1
0	4944	5013.280426134202	0
0	5076	5221.780499351956	1
0	5077	5221.996899027645	0
0	5244	5399.115575030421	1
0	5248	5400.019796064626	2
0	5252	5402.780177970275	3
0	5253	5407.242372313293	2
0	5255	5407.242372313293	1
0	5257	5407.242372313293	0
0	5277	5436.618974444374	1
0	5278	5439.733885293853	0
0	5317	5471.446342148009	1
0	5318	5473.936701321427	0
0	5345	5487.235652820285	1
0	5351	5487.871989529208	0
0	5578	5725.496268898726	1
0	5584	5728.061730687412	0
0	5590	5730.175631994031	1
0	5594	5731.191546335971	2
0	5597	5732.561730687412	1
0	5600	5735.561730687412	0
0	5620	5742.470052850872	1
0	5621	5745.793856321343	0
0	5627	5748.673261896776	1
0	5628	5748.793856321343	0
0	5676	5818.608474797135	1
0	5677	5821.944159152547	0
0	5709	5850.216262562932	1
0	5712	5854.530228536102	0
0	5865	6003.035258946131	1
0	5866	6003.681939471565	0
0	6375	6640.007561064017	1
0	6376	6642.574228135803	0
0	6725	7062.001776365658	1
0	6731	7065.665198656875	0
0	6753	7074.627327236823	1
0	6754	7074.665198656875	0
0	6884	7194.419856519997	1
0	6890	7200.625209962648	2
0	6891	7203.240414264205	1
0	6893	7203.240414264205	0
0	7298	7647.625254935869	1
0	7299	7651.052630836463	0
0	7487	7827.061306903304	1
0	7488	7828.146562821547	0
0	7494	7835.327497630439	1
0	7495	7837.146562821547	0
0	7501	7838.292872114009	1
0	7507	7841.646562821547	0
0	7612	7943.663452155271	1
0	7613	7947.2691290594	0
0	7673	8000.023593062279	1
0	7676	8003.771686610859	0
0	7710	8045.161957729772	1
0	7711	8045.790826244633	0
0	7717	8047.75297121897	1
0	7718	8050.290826244633	0
0	7724	8050.625844809311	1
0	7725	8053.290826244633	0
0	7863	8241.183728621601	1
0	7864	8246.163463640561	0
0	7937	8315.642836824353	1
0	7938	8318.66131803576	0
0	7965	8333.442741022773	1
0	7968	8334.049202645728	0
0	8002	8360.483142877474	1
0	8003	8363.210974969097	0
0	8242	8582.049258720151	1
0	8246	8585.02823837258	0
0	8359	8718.643838449117	1
0	8360	8720.368141706959	0
0	8366	8725.66611175799	1
0	8367	8729.368141706959	0
0	8415	8765.568414288069	1
0	8416	8773.15636101763	0
0	8595	8987.802516022815	1
0	8598	8989.018508273822	0
0	8674	9035.396033463723	1
0	8675	9036.092607074192	0
0	8730	9063.350739935058	1
0	8731	9066.893750929916	0
0	8842	9212.431886901444	1
0	8846	9212.444728878389	2
0	8847	9213.420686971907	1
0	8850	9216.420686971907	0
0	9057	9389.740264854079	1
0	9068	9392.600383628018	0
0	9074	9394.051722596259	1
0	9079	9397.100383628018	0
0	9225	9606.011450979571	1
0	9231	9608.419150100467	0
0	9278	9638.119956916127	1
0	9279	9638.228508625659	0
0	9315	9710.408867108335	1
0	9321	9713.349675980521	0
0	9329	9714.38270775022	1
0	9333	9715.914608739066	2
0	9334	9722.349675980521	1
0	9336	9722.349675980521	0
0	9475	9864.540004066081	1
0	9476	9865.258425443423	0
0	9489	9881.419633281043	1
0	9490	9885.255237348456	0
0	9496	9886.051509793944	1
0	9502	9888.255237348456	0
0	9600	9963.406302712962	1
0	9607	9968.233203392498	0
0	9649	10010.011024439931	1
0	9650	10012.564291328504	0
0	9691	10045.919232362163	1
0	9692	10052.02103928761	0
0	9857	10229.710092799677	1
0	9858	10230.89230826896	0
0	9976	10340.554798794909	1
0	9977	10341.114783548385	0
0	10032	10410.0410019217	1
0	10045	10416.847597104942	0
0	10115	10474.733343921661	1
0	10116	10481.276061656955	0
0	10269	10634.448040908989	1
0	10270	10636.045047509313	0
0	10276	10638.392874659218	1
0	10277	10639.045047509313	0
0	10318	10710.065588755033	1
0	10319	10714.422948771624	0
0	10479	10934.639562477914	1
0	10480	10936.947004959881	0
0	10486	10938.764411971645	1
0	10487	10941.447004959881	0
0	10749	11269.641072018239	1
0	10750	11272.904973961778	0
0	10847	11371.004975757999	1
0	10848	11371.117741149046	0
0	10922	11409.553712648875	1
0	10923	11411.941591984646	0
0	11027	11493.911291909181	1
0	11030	11498.42515805093	0
0	11083	11583.591555104972	1
0	11086	11586.02077047145	0
0	11155	11641.914234397288	1
0	11156	11643.219838833453	0
0	11162	11645.909488634984	1
0	11163	11646.219838833453	0
0	11223	11736.942159768676	1
0	11224	11738.179427871338	0
0	11239	11745.292954161178	1
0	11240	11746.297458620451	0
0	11335	11801.476313365277	1
0	11341	11803.489598349247	2
0	11342	11804.358607654919	1
0	11348	11810.538142695643	2
0	11349	11813.358607654919	1
0	11352	11816.358607654919	0
0	11379	11837.142959100181	1
0	11385	11843.384227455021	0
0	11657	12106.139005451396	1
0	11660	12108.267957872356	0
0	11694	12154.495959127976	1
0	11695	12156.506388326919	0
0	11743	12216.830566687937	1
0	11744	12217.501654081441	0
0	11904	12375.506133644971	1
0	11905	12378.273566315208	0
0	11960	12442.025069599794	1
0	11964	12442.4838203045	2
0	11970	12446.844860036519	1
0	11972	12446.844860036519	0
0	12127	12563.785035016252	1
0	12128	12565.955047792859	0
0	12139	12568.540470586463	1
0	12140	12568.955047792859	0
0	12169	12590.743413198646	1
0	12175	12593.593614157889	0
0	12183	12596.829645984581	1
0	12189	12602.593614157889	0
0	12335	12775.894438751806	1
0	12336	12776.005965191014	0
0	12417	12846.194104186856	1
0	12420	12849.876674769423	0
0	12584	12993.423749722445	1
0	12585	12993.447316469667	0
0	12591	12995.424430797827	1
0	12599	12997.947316469667	0
0	12719	13137.50177685206	1
0	12720	13137.530583026546	0
0	12761	13158.525179694638	1
0	12762	13163.719838783147	0
0	12810	13218.262020056739	1
0	12811	13218.35581920773	0
0	12852	13269.981259760465	1
0	12853	13271.162410049172	0
0	12971	13390.460564618533	1
0	12972	13394.564344221821	0
0	13167	13658.654404861091	1
0	13171	13659.14467249758	2
0	13172	13661.190540967538	1
0	13180	13665.690540967538	0
0	13236	13720.845303559793	1
0	13242	13722.168526060069	0
0	13294	13750.606319249711	1
0	13298	13756.127644900142	0
0	13396	13848.333678575261	1
0	13402	13850.543815207212	0
0	13753	14250.225129685684	1
0	13754	14251.521719730086	0
0	13905	14409.638370059429	1
0	13908	14415.197562266525	0
0	14229	14765.627734662882	1
0	14230	14767.477578750466	0
0	14292	14874.85051131941	1
0	14293	14883.085405497925	0
0	14557	15204.095528015532	1
0	14558	15208.140091895291	0
0	14599	15246.182086044992	1
0	14600	15248.599245939799	0
0	14731	15410.165976720207	1
0	14732	15414.065672723896	0
0	14843	15554.670240881008	1
0	14844	15560.137602501784	0
0	14863	15578.726561154877	1
0	14864	15581.714805720708	0
0	14940	15663.243017371322	1
0	14941	15663.481509430973	0
0	14966	15685.695221036187	1
0	14969	15691.578099218711	0
0	15086	15861.244295420904	1
0	15087	15862.446296238683	0
0	15142	15928.772116500315	1
0	15143	15935.166232126619	0
0	15289	16114.620875904063	1
0	15295	16120.933718392718	0
0	15309	16137.818224969752	1
0	15313	16137.82176079483	2
0	15314	16137.899170999888	1
0	15336	16146.899170999888	0
0	15407	16206.022636889401	1
0	15408	16206.780562338956	0
0	15519	16310.146853610107	1
0	15523	16310.183212722659	2
0	15524	16310.99982739866	1
0	15527	16319.99982739866	0
0	15838	16612.752856381515	1
0	15842	16617.473166824591	2
0	15843	16619.100716122755	1
0	15845	16619.100716122755	0
0	15956	16755.950334720086	1
0	15960	16757.94884638372	2
0	15961	16763.7548886318	1
0	15971	16772.7548886318	0
0	16114	16943.376766267982	1
0	16117	16947.161400063261	0
0	16178	17044.601151894917	1
0	16179	17045.042917749986	0
0	16218	17063.49346372347	1
0	16221	17068.522036210295	0
0	16283	17102.918625839687	1
0	16284	17104.836325112113	0
0	16290	17108.043212287155	1
0	16291	17109.336325112113	0
0	16381	17209.148707280637	1
0	16382	17211.213838262371	0
0	16542	17401.563723262593	1
0	16543	17402.909907680073	0
0	16570	17431.380881018269	1
0	16576	17433.95544968009	0
0	16584	17438.941427077849	1
0	16590	17442.95544968009	0
0	16689	17550.374295382054	1
0	16695	17551.537725599617	0
0	16891	17793.327980524793	1
0	16892	17794.181810656988	0
0	16933	17819.127233677964	1
0	16934	17821.986195772754	0
0	16995	17849.48054265888	1
0	16996	17851.179205260226	0
0	17007	17852.863388942145	1
0	17008	17855.679205260226	0
0	17057	17912.722903151037	1
0	17058	17913.982899687168	0
0	17260	18145.24179078808	1
0	17261	18150.239703148979	0
0	17295	18191.509777118895	1
0	17299	18197.942236350182	2
0	17300	18199.060075380593	1
0	17306	18200.342177616435	2
0	17307	18208.060075380593	1
0	17315	18211.060075380593	0
0	17486	18401.856205443236	1
0	17489	18404.510216466342	0
0	17615	18551.518813442144	1
0	17625	18555.243365229189	0
0	17921	18884.239621278608	1
0	17922	18884.322596791389	0
0	18036	19030.537788870304	1
0	18046	19032.352035014676	0
0	18179	19174.026838254397	1
0	18190	19180.445070450393	2
0	18194	19181.651184594167	3
0	18195	19182.915220199499	2
0	18197	19182.915220199499	1
0	18203	19185.445388121187	2
0	18214	19191.915220199499	1
0	18216	19191.915220199499	0
0	18359	19275.005274171482	1
0	18360	19275.690339972223	0
0	18380	19287.575756246759	1
0	18390	19292.038041709276	0
0	18463	19363.305233581714	1
0	18472	19364.223770608578	2
0	18473	19367.338581836171	1
0	18486	19375.135471138691	2
0	18487	19376.338581836171	1
0	18489	19376.338581836171	0
0	18511	19388.280942939357	1
0	18512	19391.757497406452	0
0	18566	19452.711382966834	1
0	18572	19459.75689920901	0
0	18668	19542.503762527479	1
0	18671	19546.850533123307	0
0	18698	19593.198506612453	1
0	18699	19597.382223931736	0
0	18724	19617.240040873288	1
0	18727	19625.780021166895	0
0	18866	19848.183108374607	1
0	18867	19848.946299287861	0
0	18901	19897.461348506116	1
0	18902	19897.970053799042	0
0	18915	19903.604640854586	1
0	18916	19906.970053799042	0
0	18976	19979.134325883098	1
0	18977	19979.592499412369	0
0	19069	20063.275044924159	1
0	19070	20066.185339452805	0
0	19095	20082.304526339978	1
0	19103	20084.434988010444	0
0	19116	20086.508264138434	1
0	19119	20088.934988010444	0
0	19195	20183.338774319025	1
0	19196	20186.175921489722	0
0	19216	20219.197584961446	1
0	19220	20219.796464507326	2
0	19221	20221.070160123354	1
0	19234	20228.835323197893	2
0	19235	20230.070160123354	1
0	19237	20230.070160123354	0
0	19250	20241.1608685593	1
0	19254	20243.984308795953	2
0	19255	20245.71186735777	1
0	19261	20245.869004198044	2
0	19262	20250.21186735777	1
0	19268	20251.186434547852	2
0	19269	20259.21186735777	1
0	19271	20259.21186735777	0
0	19353	20348.484733825798	1
0	19357	20348.707252363416	2
0	19358	20349.65393167331	1
0	19361	20354.15393167331	0
0	19367	20354.491991587349	1
0	19371	20354.834841173455	2
0	19372	20358.65393167331	1
0	19374	20358.65393167331	0
0	19487	20457.003953039674	1
0	19491	20461.443001303695	0
0	19618	20595.396604302909	1
0	19619	20596.600415027057	0
0	19674	20654.715191763066	1
0	19675	20655.581321187992	0
0	19700	20667.019077672006	1
0	19708	20669.24657663781	0
0	19722	20672.451929390004	1
0	19729	20678.24657663781	0
0	19735	20678.545359342497	1
0	19752	20687.24657663781	0
0	19951	20877.164243964611	1
0	19954	20881.282791778569	0
0	20561	21453.278997554768	1
0	20562	21457.191454521727	0
0	20568	21459.303853639704	1
0	20581	21466.191454521727	0
0	20596	21474.05110256978	1
0	20597	21477.228709771076	0
0	20816	21738.240056940721	1
0	20821	21741.685860902013	0
0	20913	21845.774523422993	1
0	20930	21852.139166977065	0
0	20987	21873.376811901665	1
0	20988	21873.632180339108	0
0	20999	21881.441689741034	1
0	21000	21882.632180339108	0
0	21013	21885.833016548764	1
0	21016	21891.632180339108	0
0	21085	21959.803357090983	1
0	21089	21960.616287924712	2
0	21090	21961.811931769818	1
0	21100	21970.811931769818	0
0	21140	22002.418958348014	1
0	21141	22010.51533020011	0
0	21417	22292.425081067799	1
0	21420	22301.206346151417	0
0	21579	22452.409909790657	1
0	21580	22452.992326222954	0
0	21586	22456.721860826788	1
0	21587	22457.492326222954	0
0	21614	22463.152755664125	1
0	21620	22466.492326222954	0
0	21902	22731.439324381369	1
0	21908	22735.191253587936	0
0	21927	22749.435569514945	1
0	21928	22753.283909847132	0
0	21962	22797.791810869672	1
0	21963	22801.006627952231	0
0	22004	22836.082860361511	1
0	22005	22839.861998866397	0
0	22037	22860.821925168708	1
0	22038	22861.761677390136	0
0	22242	23029.905259380393	1
0	22246	23030.23737354515	2
0	22250	23038.179445560669	3
0	22251	23038.349541993126	2
0	22254	23042.849541993126	1
0	22256	23042.849541993126	0
0	22436	23226.909111780247	1
0	22437	23228.501712194509	0
0	22520	23336.823065248971	1
0	22526	23342.089590212755	0
0	22643	23442.946036940621	1
0	22648	23444.017807316473	0
0	22871	23670.668652878383	1
0	22874	23673.240783026453	0
0	22917	23717.502915571643	1
0	22918	23724.7265874298	0
0	22937	23746.735466423996	1
0	22948	23751.80242378645	2
0	22949	23752.505694156458	1
0	22957	23755.505694156458	0
0	23077	23875.876894670492	1
0	23081	23879.231682535162	2
0	23082	23881.6493615623	1
0	23085	23884.6493615623	0
0	23096	23892.881074294076	1
0	23097	23893.6493615623	0
0	23210	24028.021189799664	1
0	23214	24029.054890280321	2
0	23220	24033.898777107932	1
0	23225	24038.398777107932	0
0	23482	24272.066391826957	1
0	23483	24272.808851137719	0
0	23501	24282.11373042933	1
0	23504	24287.216080996107	0
0	23704	24436.897779867227	1
0	23705	24442.171633130337	0
0	23745	24484.082045939431	1
0	23746	24488.514571338971	0
0	23920	24634.883087582334	1
0	23921	24636.412830643285	0
0	24044	24749.569925742117	1
0	24050	24752.487092122393	2
0	24051	24757.603672991631	1
0	24053	24757.603672991631	0
0	24143	24892.787906126675	1
0	24149	24897.347328076041	0
0	24219	24983.919477959637	1
0	24223	24986.293243662384	2
0	24224	24986.822543811389	1
0	24232	24989.822543811389	0
0	24303	25042.569827265332	1
0	24307	25045.703756577739	2
0	24308	25046.913782782956	1
0	24314	25050.509504242328	2
0	24315	25051.413782782956	1
0	24317	25051.413782782956	0
0	24323	25051.560283662219	1
0	24324	25060.413782782956	0
0	24460	25203.417460762892	1
0	24464	25203.80370517053	2
0	24465	25203.836790826141	1
0	24473	25205.329552390266	2
0	24474	25208.336790826141	1
0	24477	25217.336790826141	0
0	24510	25246.642410692534	1
0	24516	25247.325786667458	0
0	24552	25260.557600071121	1
0	24553	25261.842589024582	0
0	24559	25265.556074794668	1
0	24560	25266.342589024582	0
0	24879	25573.247976855618	1
0	24885	25577.994513704177	0
0	25017	25710.096136166268	1
0	25026	25713.270048850642	2
0	25029	25718.072411767279	1
0	25032	25721.072411767279	0
0	25038	25722.402800504345	1
0	25039	25725.572411767279	0
0	25092	25808.13237195257	1
0	25098	25809.742660045369	0
0	25267	25982.204300639721	1
0	25268	25984.424965568906	0
0	25307	26004.795928071055	1
0	25311	26005.293189055611	2
0	25317	26009.127181674493	3
0	25318	26013.28447280863	2
0	25320	26013.28447280863	1
0	25323	26017.78447280863	0
0	25447	26157.950569710363	1
0	25451	26160.790416647238	2
0	25452	26162.222004410839	1
0	25455	26166.722004410839	0
0	25689	26409.405372563297	1
0	25697	26417.014552586319	0
0	25828	26539.757332009705	1
0	25831	26542.987873387166	0
0	25837	26546.043110500168	1
0	25838	26551.987873387166	0
0	25991	26714.132226578693	1
0	25992	26718.499900992427	0
0	26074	26800.44740771771	1
0	26082	26805.623776842912	0
0	26235	26981.389454385639	1
0	26236	26982.539473598563	0
0	26373	27141.086972271538	1
0	26383	27149.713871562964	0
0	26414	27168.061427926361	1
0	26415	27169.848900804612	0
0	26444	27191.003670774621	1
0	26445	27195.273457028361	0
0	26507	27260.496032535837	1
0	26508	27264.971418709203	0
0	26514	27272.417535094987	1
0	26518	27273.844648860043	2
0	26519	27273.971418709203	1
0	26522	27276.971418709203	0
0	26582	27323.518530736115	1
0	26586	27325.774643149851	2
0	26599	27332.33969501318	1
0	26601	27332.33969501318	0
0	26743	27469.487289463578	1
0	26747	27470.583399077878	2
0	26753	27474.472762860401	1
0	26756	27477.472762860401	0
0	26784	27498.967561151023	1
0	26785	27504.172267127944	0
0	26812	27528.440278916858	1
0	26813	27530.047996861187	0
0	26964	27693.134060068792	1
0	26967	27698.767037740922	0
0	27176	27897.839808253971	1
0	27177	27900.623169738162	0
0	27293	28031.208439717489	1
0	27306	28032.633670704425	0
0	27421	28187.579409253269	1
0	27422	28189.305867740777	0
0	27428	28192.878398756702	1
0	27429	28198.305867740777	0
0	27440	28203.277619299762	1
0	27443	28207.305867740777	0
0	27454	28208.815389643878	1
0	27455	28211.805867740777	0
0	27844	28635.62961845802	1
0	27847	28637.640326890318	0
0	27862	28652.206944546795	1
0	27863	28659.995106535952	0
0	27875	28664.981076881277	1
0	27876	28667.231459611576	0
0	27889	28696.011985777716	1
0	27902	28704.281772501432	0
0	27986	28756.888544002432	1
0	27987	28758.137371224799	0
0	28063	28840.344946207154	1
0	28064	28840.836116363834	0
0	28075	28841.836802734337	1
0	28076	28843.836116363834	0
0	28161	28896.199839779868	1
0	28170	28901.514100441859	2
0	28173	28902.781903403652	1
0	28181	28905.781903403652	0
0	28357	29108.15980741222	1
0	28358	29110.88858974827	0
0	28742	29533.706902878696	1
0	28746	29535.327273512819	2
0	28747	29536.151279699617	1
0	28755	29545.151279699617	0
0	28849	29588.497627211161	1
0	28856	29590.011762279922	0
0	28867	29597.553487903699	1
0	28868	29599.011762279922	0
0	28972	29694.473667485531	1
0	28973	29696.729645129285	0
0	29089	29822.232621030769	1
0	29090	29823.440559053883	0
0	29184	29926.452431759573	1
0	29185	29927.866393057257	0
0	29245	29981.432823594043	1
0	29246	29983.06149159508	0
0	29252	29988.518419358788	1
0	29258	29992.06149159508	0
0	29264	29993.195218051271	1
0	29274	30001.06149159508	0
0	29335	30093.706617842484	1
0	29339	30096.257186671361	2
0	29347	30100.638301027032	1
0	29349	30100.638301027032	0
0	29530	30340.952038178916	1
0	29531	30345.575020262736	0
0	29600	30449.513941290684	1
0	29601	30456.645616347296	0
0	29653	30508.114372294847	1
0	29663	30511.941655909351	0
0	29681	30519.340242529528	1
0	29684	30520.941655909351	0
0	29851	30678.253031903641	1
0	29852	30680.222693980244	0
0	29867	30685.27767195148	1
0	29873	30689.222693980244	0
0	30019	30845.378776068647	1
0	30025	30849.806727531945	0
0	30109	30956.27268935132	1
0	30110	30959.067071431258	0
0	30333	31135.615430124089	1
0	30334	31137.877448458768	0
0	30417	31211.231993829454	1
0	30418	31214.170073144427	0
0	30498	31292.647144211495	1
0	30504	31296.050418963549	2
0	30505	31299.327974539638	1
0	30508	31303.827974539638	0
0	30527	31320.553045177829	1
0	30528	31322.36990083307	0
0	30597	31400.096543169358	1
0	30598	31402.524441952865	0
0	30835	31674.259521277525	1
0	30836	31676.861278309079	0
0	31080	31873.561331208449	1
0	31091	31877.893819020907	0
0	31330	32042.146385781332	1
0	31337	32043.629911989985	2
0	31343	32050.080399344044	1
0	31345	32050.080399344044	0
0	31454	32190.238984324241	1
0	31458	32190.787299700793	2
0	31461	32193.748975362937	1
0	31464	32198.248975362937	0
0	31482	32223.500155312948	1
0	31485	32227.399983824169	0
0	31512	32254.872648734715	1
0	31513	32263.134348864758	0
0	31547	32312.468704707524	1
0	31548	32312.686836415896	0
0	31568	32332.021713292752	1
0	31572	32332.047421097744	2
0	31573	32332.148758620175	1
0	31583	32341.148758620175	0
0	31791	32575.090486209727	1
0	31792	32582.551600261528	0
0	31891	32691.59954343937	1
0	31899	32692.833403369285	2
0	31900	32695.973882999775	1
0	31903	32698.973882999775	0
0	32147	32928.631682711977	1
0	32148	32928.724719583872	0
0	32203	32994.842582114203	1
0	32204	32999.035934710953	0
0	32356	33166.257251544873	1
0	32357	33166.998395660272	0
0	32545	33370.491523554936	1
0	32546	33371.822229000688	0
0	32575	33378.867258214304	1
0	32583	33380.822229000688	0
0	32589	33381.943442061102	1
0	32596	33383.301219374167	2
0	32597	33385.322229000688	1
0	32607	33394.322229000688	0
0	32719	33561.396514065751	1
0	32723	33563.949477409767	2
0	32724	33569.639233425415	1
0	32726	33569.639233425415	0
0	32954	33862.326946797695	1
0	32957	33866.522720798775	0
0	33005	33900.811029020371	1
0	33006	33904.517327763238	0
0	33185	34105.847638074861	1
0	33201	34109.341603291462	2
0	33202	34110.289163047061	1
0	33209	34114.789163047061	0
0	33269	34157.213793784706	1
0	33284	34161.528730040578	2
0	33285	34163.078284739616	1
0	33292	34167.578284739616	0
0	33452	34416.61839406981	1
0	33456	34419.619396760211	2
0	33457	34422.179342499856	1
0	33459	34422.179342499856	0
0	33491	34445.307016830028	1
0	33496	34446.974766582137	0
0	33590	34539.382651496113	1
0	33596	34541.560349173444	0
0	33646	34583.82978944233	1
0	33650	34584.718766502177	2
0	33651	34586.691122546717	1
0	33657	34588.387914182478	2
0	33658	34589.691122546717	1
0	33661	34594.191122546717	0
0	33667	34595.957157795178	1
0	33671	34600.274696895492	2
0	33672	34603.191122546717	1
0	33674	34603.191122546717	0
0	33715	34634.862419913761	1
0	33719	34637.007429423052	2
0	33725	34638.254226283383	1
0	33728	34641.254226283383	0
0	33916	34868.30364082971	1
0	33919	34874.655803394631	0
0	34176	35112.730614644864	1
0	34177	35112.750078481911	0
0	34237	35170.426095184972	1
0	34241	35171.845810592734	2
0	34249	35173.548501232469	1
0	34254	35176.548501232469	0
0	34323	35282.519970024247	1
0	34324	35291.501100718018	0
0	34873	35731.496899041318	1
0	34874	35733.267462008849	0
0	35006	35899.43295204314	1
0	35007	35901.63067282173	0
0	35018	35905.615267390658	1
0	35019	35906.13067282173	0
0	35104	36001.340474357519	1
0	35105	36006.121804788404	0
0	35122	36022.403808403029	1
0	35125	36025.861891377296	0
0	35137	36042.823202494008	1
0	35138	36045.798764446574	0
0	35351	36264.097294260948	1
0	35352	36266.784178228118	0
0	35367	36272.761241637684	1
0	35375	36280.312324105439	0
0	35406	36315.820311410837	1
0	35407	36316.784844143938	0
0	35590	36540.307141449981	1
0	35591	36541.488931234296	0
0	35618	36561.593502991092	1
0	35619	36564.34663944696	0
0	36075	37153.788833324579	1
0	36076	37154.130183523939	0
0	36094	37169.368027413278	1
0	36095	37170.667461584443	0
0	36101	37171.111837442677	1
0	36109	37175.167461584443	0
0	36143	37216.363638289679	1
0	36144	37218.938885308332	0
0	36157	37227.803094305833	1
0	36158	37232.249515201283	0
0	36241	37322.227911782397	1
0	36242	37322.230851266636	0
0	36339	37396.628683236039	1
0	36340	37399.146143912409	0
0	36640	37698.206320383137	1
0	36641	37699.817151981267	0
0	36787	37834.94447923795	1
0	36788	37834.979785254409	0
0	36941	37999.567813291663	1
0	36942	38000.478528142289	0
0	37081	38147.305302425129	1
0	37089	38151.902965119925	0
0	37205	38240.651793819962	1
0	37206	38241.8085812832	0
0	37396	38449.449855941224	1
0	37397	38449.622935451776	0
0	37751	38817.51032727284	1
0	37752	38818.160691484732	0
0	37802	38873.479346948329	1
0	37808	38873.919463286662	0
0	37935	39035.687438243678	1
0	37936	39036.06777239756	0
0	37942	39040.711003491689	1
0	37946	39040.916539843017	2
0	37947	39045.06777239756	1
0	37950	39049.56777239756	0
0	38018	39113.462350100037	1
0	38019	39114.762333256888	0
0	38060	39169.126112546315	1
0	38061	39169.316526524135	0
0	38305	39427.576229363175	1
0	38311	39429.986732277662	0
0	38564	39661.531502609017	1
0	38565	39665.246645662981	0
0	38648	39764.680262006476	1
0	38649	39767.550061707918	0
0	38695	39799.774525067025	1
0	38698	39807.813980896445	0
0	38851	39960.083132415558	1
0	38852	39963.291910079937	0
0	38884	40006.584148916962	1
0	38887	40010.61095008467	0
0	38977	40105.748154613073	1
0	38978	40108.784517700401	0
0	38984	40111.723838020568	1
0	38985	40111.784517700401	0
0	39054	40154.313933136027	1
0	39060	40157.370618836307	0
0	39477	40596.750529730204	1
0	39478	40597.698728489911	0
0	39507	40634.792512021912	1
0	39508	40639.279070675198	0
0	39563	40698.641722455149	1
0	39564	40703.654513057216	0
0	39700	40826.367454112361	1
0	39703	40827.839322714575	0
0	39763	40911.341694826055	1
0	39767	40912.900934335903	2
0	39770	40915.820660933611	1
0	39792	40924.820660933611	0
0	39827	40961.56783431063	1
0	39828	40965.773133641745	0
0	39846	40974.580653614341	1
0	39847	40974.773133641745	0
0	39858	40977.251977693701	1
0	39861	40977.773133641745	0
0	40240	41363.294445522631	1
0	40241	41365.979809797259	0
0	40247	41367.936938963652	1
0	40248	41368.979809797259	0
0	40254	41369.098904581169	1
0	40255	41373.479809797259	0
0	40301	41396.827848481401	1
0	40304	41399.267605610628	0
0	40407	41515.48241400786	1
0	40413	41516.60953622549	0
0	40461	41535.835507589204	1
0	40464	41540.901754311961	0
0	40491	41578.699455000493	1
0	40492	41578.940614288631	0
0	40589	41696.326496324733	1
0	40590	41697.49557814404	0
0	40763	41862.13341347105	1
0	40767	41869.795714685516	2
0	40768	41870.10772505833	1
0	40770	41870.10772505833	0
0	40923	42073.067551555212	1
0	40931	42078.009577375973	0
0	40937	42080.591689273775	1
0	40938	42081.009577375973	0
0	40982	42105.759089340017	1
0	40992	42109.3816440459	0
0	41040	42165.31187674089	1
0	41043	42167.669872371687	0
0	41110	42242.01042122534	1
0	41113	42244.176743483007	0
0	41186	42313.556640385939	1
0	41190	42314.24803077565	2
0	41198	42316.405496082801	1
0	41210	42325.405496082801	0
0	41425	42601.326824706375	1
0	41426	42603.267214723815	0
0	41500	42687.18754606163	1
0	41501	42689.83120191739	0
0	41516	42702.017529522935	1
0	41517	42703.532257021084	0
0	41563	42749.828233951879	1
0	41564	42751.325005340185	0
0	41570	42751.544198666554	1
0	41573	42755.825005340185	0
0	41733	42945.853224925577	1
0	41739	42952.302085605067	0
0	41824	43040.654979487621	1
0	41828	43040.676112808808	2
0	41829	43042.751552364225	1
0	41832	43045.751552364225	0
0	41862	43082.284516618721	1
0	41879	43088.864129767555	0
0	42017	43232.04621626343	1
0	42020	43239.171953881646	0
0	42088	43311.256446962977	1
0	42094	43318.149151069727	0
0	42102	43321.457136843803	1
0	42108	43327.149151069727	0
0	42374	43639.493496902946	1
0	42375	43641.039585956798	0
0	42554	43836.654140698411	1
0	42564	43845.487203196479	0
0	42688	43993.350000350711	1
0	42689	43995.153921980916	0
0	42695	43997.893607697438	1
0	42696	43998.153921980916	0
0	42702	44005.498793430572	1
0	42703	44007.153921980916	0
0	42763	44073.95100332098	1
0	42766	44074.478637305982	0
0	42827	44136.239560229171	1
0	42837	44142.346319679836	0
0	42868	44155.968374037539	1
0	42874	44164.505059138281	0
0	42914	44177.32919759715	1
0	42931	44186.14170135532	0
0	42978	44260.925832389352	1
0	42979	44262.226390173159	0
0	42985	44263.984893342363	1
0	42986	44265.226390173159	0
0	43343	44586.557514536506	1
0	43348	44587.790281260231	0
0	43436	44684.957441456959	1
0	43442	44691.87122884941	0