version 3
run General-0-20230509-09:57:35-95742
attr configname General
attr datetime 20230509-09:57:35
attr datetimef 20230509-095735
attr experiment General
attr inifile omnetpp.ini
attr iterationvars ""
attr iterationvarsd ""
attr iterationvarsf ""
attr measurement ""
attr network Design1
attr processid 95742
attr repetition 0
attr replication #0
attr resultdir results
attr runnumber 0
attr seedset 0
config network Design1
config **.source.interArrivalTime exponential(7.2s)
config **.source.numJobs 10000
config **.server1.serviceTime 6s
config **.server2.serviceTime 6s
config **.server3.serviceTime 6s

vector 0 Design1.customQueue1 queueLength:vector ETV
attr interpolationmode sample-hold
attr recordingmode vector
attr title "queue length"
vector 1 Design1.customQueue2 queueLength:vector ETV
attr interpolationmode sample-hold
attr recordingmode vector
attr title "queue length"
vector 2 Design1.customQueue3 queueLength:vector ETV
attr interpolationmode sample-hold
attr recordingmode vector
attr title "queue length"
0	0	0	0
1	0	0	0
2	0	0	0
2	9	12.199931229958	1
2	10	14.301725004303	0
vector 3 Design1.customSink lifeTime:vector ETV
attr interpolationmode none
attr recordingmode vector
attr title "lifetime of arrived jobs"
attr unit s
3	11	14.301725004303	8.571428571429
0	51	83.496630752379	1
0	52	93.975420692561	0
0	79	116.158355074882	1
0	80	118.877642470579	0
0	91	122.955375206144	1
0	108	136.877642470579	0
0	353	405.789267619138	1
0	359	419.151713719215	0
0	378	431.846611386153	1
0	389	440.545242670335	2
0	390	441.517823336524	1
0	392	441.517823336524	0
0	470	541.015978718317	1
0	474	545.857694439519	2
0	480	547.700259471357	1
0	490	565.700259471357	0
0	588	679.190754209197	1
0	592	681.39110950226	2
0	593	683.626458069559	1
0	596	692.626458069559	0
0	642	742.956828111961	1
0	648	749.246536781007	0
0	696	793.907770451608	1
0	697	797.864408898172	0
0	719	822.719562630781	1
0	725	826.231821628078	0
0	880	968.368094937607	1
0	881	969.522567734199	0
0	887	970.637247144361	1
0	893	975.522567734199	0
0	899	979.682169091801	1
0	900	981.522567734199	0
0	941	1017.351464866884	1
0	944	1023.015056668596	0
0	1116	1171.014574385268	1
0	1117	1174.977178884218	0
0	1132	1177.436162917565	1
0	1144	1185.201400095632	2
0	1154	1192.977178884218	1
0	1156	1192.977178884218	0
0	1234	1265.700959077669	1
0	1241	1268.233684252764	2
0	1254	1273.504973972515	1
0	1256	1273.504973972515	0
0	1266	1289.909715455376	1
0	1267	1291.504973972515	0
0	1329	1338.587149697996	1
0	1335	1340.764512027399	0
0	1346	1345.800328646113	1
0	1357	1349.861745975759	2
0	1363	1352.143983110936	3
0	1367	1352.329945030802	4
0	1379	1358.764512027399	3
0	1381	1358.764512027399	2
0	1387	1364.764512027399	1
0	1389	1364.764512027399	0
0	1452	1427.298349370001	1
0	1461	1430.701800979616	2
0	1465	1430.76334671386	3
0	1474	1437.225198068585	4
0	1484	1441.941010779651	3
0	1486	1441.941010779651	2
0	1488	1441.941010779651	1
0	1490	1441.941010779651	0
0	1600	1593.529877859003	1
0	1608	1601.272557724347	0
0	1799	1834.115509905426	1
0	1810	1839.25466314666	2
0	1813	1842.384358757243	1
0	1815	1842.384358757243	0
0	1821	1843.222856374527	1
0	1825	1847.982630940501	2
0	1833	1860.384358757243	1
0	1835	1860.384358757243	0
0	1847	1869.31725076638	1
0	1853	1883.649365492788	0
0	1867	1887.485098338837	1
0	1876	1897.16473274886	2
0	1879	1902.7482413132	1
0	1881	1902.7482413132	0
0	1928	1952.498223636086	1
0	1932	1954.809406772915	2
0	1933	1956.682817965771	1
0	1951	1964.745929297681	2
0	1952	1965.682817965771	1
0	1954	1965.682817965771	0
0	2016	2024.440750573143	1
0	2017	2026.022248426981	0
0	2023	2026.779431566596	1
0	2033	2044.022248426981	0
0	2149	2208.37232497071	1
0	2150	2210.364065789221	0
0	2156	2217.716748268572	1
0	2160	2220.328124449256	2
0	2164	2224.08961500136	3
0	2170	2228.364065789221	2
0	2172	2228.364065789221	1
0	2174	2228.364065789221	0
0	2258	2307.8963356325	1
0	2267	2311.853141290709	2
0	2280	2316.892403568795	1
0	2286	2319.792996971705	2
0	2291	2325.892403568795	1
0	2293	2325.892403568795	0
0	2519	2574.174840670637	1
0	2522	2576.871946213018	0
0	2694	2743.464906710126	1
0	2695	2744.700628106731	0
0	2734	2791.798796722486	1
0	2742	2798.42999441111	0
0	2803	2844.215903474324	1
0	2806	2845.366265782988	0
0	2856	2902.989080211521	1
0	2864	2911.664975949556	0
0	2892	2931.388606490342	1
0	2893	2932.134979855817	0
0	2901	2935.724506207503	1
0	2902	2938.134979855817	0
0	2942	2985.053231190691	1
0	2946	2987.40173293286	2
0	2954	3002.832379285771	1
0	2956	3002.832379285771	0
0	3024	3076.157594717747	1
0	3030	3078.985665100588	0
0	3057	3097.540538664454	1
0	3058	3098.574187964055	0
0	3078	3109.504519042904	1
0	3079	3112.604589901551	0
0	3108	3150.661316625043	1
0	3109	3158.342848435269	0
0	3145	3192.477723645618	1
0	3152	3197.560305697294	2
0	3155	3206.72188071766	1
0	3157	3206.72188071766	0
0	3210	3250.833376376781	1
0	3223	3264.468550817219	0
0	3328	3358.657289492174	1
0	3334	3373.148474101971	0
0	3376	3480.398388153311	1
0	3380	3480.673837870907	2
0	3386	3488.200536198222	1
0	3399	3492.31669615662	2
0	3402	3497.200536198222	1
0	3404	3497.200536198222	0
0	3649	3678.128910566876	1
0	3653	3681.309105438621	0
0	3682	3719.477208321065	1
0	3683	3720.436706871845	0
0	3716	3740.111907041985	1
0	3717	3742.83752204276	0
0	3725	3746.726026319848	1
0	3733	3760.83752204276	0
0	3820	3858.277859994439	1
0	3828	3861.957340509765	0
0	3850	3901.816349053998	1
0	3856	3904.85641063328	0
0	3869	3922.200368434432	1
0	3870	3922.85641063328	0
0	3876	3923.143261404058	1
0	3880	3930.584113246173	2
0	3883	3931.85641063328	1
0	3885	3931.85641063328	0
0	3891	3935.994585492446	1
0	3895	3937.016379206901	2
0	3896	3949.85641063328	1
0	3898	3949.85641063328	0
0	3984	4101.150366104898	1
0	3985	4101.799356045966	0
0	4038	4140.282379333964	1
0	4053	4149.175207975435	2
0	4063	4151.546527326071	1
0	4072	4158.333737214853	2
0	4078	4160.546527326071	1
0	4080	4160.546527326071	0
0	4149	4264.013345009349	1
0	4150	4265.899019502953	0
0	4271	4380.803187286557	1
0	4272	4388.451806847178	0
0	4311	4420.136458104097	1
0	4315	4423.008662218981	2
0	4318	4425.605073841602	1
0	4321	4431.605073841602	0
0	4514	4722.592976200611	1
0	4523	4727.414444181557	2
0	4524	4729.011143147006	1
0	4539	4743.140920775171	2
0	4545	4747.011143147006	1
0	4547	4747.011143147006	0
0	4678	4853.227593057256	1
0	4686	4868.553894239991	0
0	4710	4900.636760071373	1
0	4715	4905.529308529753	0
0	4741	4929.675463537034	1
0	4747	4936.693605721319	0
0	4768	4943.188881899601	1
0	4775	4944.751690703259	0
0	4795	4967.000057353657	1
0	4810	4977.1887134917	0
0	4870	5011.693493720086	1
0	4878	5016.280426134202	0
0	4912	5064.530009724638	1
0	4913	5066.195323694849	0
0	5005	5221.780499351956	1
0	5006	5226.496899027645	0
0	5024	5237.754473679256	1
0	5032	5244.496899027645	0
0	5172	5399.115575030421	1
0	5176	5400.019796064626	2
0	5180	5402.780177970275	3
0	5186	5416.242372313293	2
0	5188	5416.242372313293	1
0	5190	5416.242372313293	0
0	5204	5436.618974444374	1
0	5210	5448.733885293853	0
0	5243	5471.446342148009	1
0	5244	5476.936701321427	0
0	5268	5487.235652820285	1
0	5276	5490.871989529208	0
0	5369	5587.954704760443	1
0	5373	5593.641660445525	2
0	5374	5595.655648668895	1
0	5382	5604.655648668895	0
0	5490	5725.061730687412	1
0	5494	5725.496268898726	2
0	5499	5726.876124707131	1
0	5508	5730.175631994031	2
0	5512	5731.191546335971	3
0	5513	5732.876124707131	2
0	5515	5732.876124707131	1
0	5525	5738.876124707131	0
0	5537	5742.470052850872	1
0	5543	5748.673261896776	2
0	5544	5750.293856321343	1
0	5546	5750.293856321343	0
0	5594	5818.608474797135	1
0	5600	5830.944159152547	0
0	5626	5850.216262562932	1
0	5634	5863.530228536102	0
0	5779	6003.035258946131	1
0	5780	6008.181939471565	0
0	5796	6014.225361138003	1
0	5804	6017.181939471565	0
0	5812	6023.614252525521	1
0	5818	6027.724374653294	2
0	5819	6035.181939471565	1
0	5822	6041.181939471565	0
0	5869	6105.387011167999	1
0	5875	6114.17141848518	0
0	6002	6327.332789255409	1
0	6006	6333.524555237718	0
0	6282	6640.007561064017	1
0	6293	6649.916916040109	2
0	6294	6651.574228135803	1
0	6296	6651.574228135803	0
0	6626	7061.165198656875	1
0	6630	7062.001776365658	2
0	6631	7063.403411084793	1
0	6648	7072.403411084793	0
0	6789	7194.419856519997	1
0	6795	7200.625209962648	2
0	6804	7211.513865483082	3
0	6805	7212.240414264205	2
0	6807	7212.240414264205	1
0	6809	7212.240414264205	0
0	6929	7393.342476909447	1
0	6930	7394.884045290888	0
0	7038	7502.26710458063	1
0	7044	7505.230258703402	0
0	7052	7509.138993201077	1
0	7055	7511.230258703402	0
0	7196	7647.625254935869	1
0	7199	7660.052630836463	0
0	7381	7827.061306903304	1
0	7389	7835.327497630439	2
0	7390	7837.146562821547	1
0	7392	7837.146562821547	0
0	7398	7838.292872114009	1
0	7404	7846.146562821547	0
0	7507	7943.663452155271	1
0	7510	7951.7691290594	0
0	7562	7999.271686610859	1
0	7566	8000.023593062279	2
0	7567	8000.776121526729	1
0	7577	8009.776121526729	0
0	7605	8045.161957729772	1
0	7609	8047.75297121897	2
0	7610	8048.790826244633	1
0	7616	8050.625844809311	2
0	7617	8057.790826244633	1
0	7619	8057.790826244633	0
0	7756	8241.183728621601	1
0	7781	8255.163463640561	0
0	7830	8315.642836824353	1
0	7831	8323.16131803576	0
0	7855	8333.442741022773	1
0	7860	8337.049202645728	0
0	7892	8360.483142877474	1
0	7898	8368.748146271296	2
0	7899	8372.210974969097	1
0	7901	8372.210974969097	0
0	8128	8582.049258720151	1
0	8136	8594.02823837258	0
0	8247	8718.643838449117	1
0	8251	8725.66611175799	2
0	8252	8729.368141706959	1
0	8254	8729.368141706959	0
0	8269	8732.807417260963	1
0	8270	8735.368141706959	0
0	8300	8765.568414288069	1
0	8301	8782.15636101763	0
0	8318	8794.083982498297	1
0	8321	8800.512036219553	0
0	8354	8826.374588895862	1
0	8360	8834.127451558231	0
0	8477	8987.802516022815	1
0	8480	8998.018508273822	0
0	8551	9035.396033463723	1
0	8558	9039.092607074192	0
0	8606	9063.350739935058	1
0	8611	9071.393750929916	0
0	8717	9212.431886901444	1
0	8721	9212.444728878389	2
0	8726	9216.420686971907	1
0	8734	9222.420686971907	0
0	8820	9295.858693164226	1
0	8821	9296.155086814755	0
0	8836	9305.831770643566	1
0	8853	9314.155086814755	0
0	8875	9317.774530987624	1
0	8889	9332.155086814755	0
0	8933	9389.740264854079	1
0	8947	9394.051722596259	2
0	8948	9395.600383628018	1
0	8955	9404.600383628018	0
0	9101	9606.011450979571	1
0	9115	9612.919150100467	0
0	9152	9638.119956916127	1
0	9155	9647.228508625659	0
0	9186	9710.408867108335	1
0	9197	9714.38270775022	2
0	9201	9715.914608739066	3
0	9202	9716.349675980521	2
0	9216	9734.349675980521	1
0	9218	9734.349675980521	0
0	9325	9852.6204297535	1
0	9326	9853.687497568693	0
0	9346	9864.540004066081	1
0	9347	9868.258425443423	0
0	9359	9881.419633281043	1
0	9363	9886.051509793944	2
0	9369	9894.255237348456	1
0	9374	9900.255237348456	0
0	9466	9963.406302712962	1
0	9486	9977.233203392498	0
0	9516	10010.011024439931	1
0	9517	10017.064291328504	0
0	9523	10018.695619560568	1
0	9524	10026.064291328504	0
0	9545	10043.02103928761	1
0	9553	10045.919232362163	2
0	9554	10048.937024564551	1
0	9560	10057.557945756252	2
0	9561	10066.937024564551	1
0	9563	10066.937024564551	0
0	9665	10192.109207268708	1
0	9666	10193.687986977521	0
0	9719	10229.710092799677	1
0	9720	10235.39230826896	0
0	9835	10340.554798794909	1
0	9843	10350.114783548385	0
0	9890	10410.0410019217	1
0	9906	10425.847597104942	0
0	9931	10450.837249051276	1
0	9932	10456.606296303198	0
0	9938	10460.226091314174	1
0	9961	10472.276061656955	2
0	9962	10474.606296303198	1
0	9964	10474.606296303198	0
0	9970	10474.733343921661	1
0	9976	10487.985765067092	2
0	9977	10492.606296303198	1
0	9979	10492.606296303198	0
0	9985	10499.738473906789	1
0	9986	10501.606296303198	0
0	10122	10634.448040908989	1
0	10126	10638.392874659218	2
0	10127	10640.545047509313	1
0	10129	10640.545047509313	0
0	10168	10710.065588755033	1
0	10176	10723.422948771624	0
0	10330	10934.639562477914	1
0	10334	10938.764411971645	2
0	10335	10941.447004959881	1
0	10337	10941.447004959881	0
0	10588	11268.404973961778	1
0	10592	11269.641072018239	2
0	10593	11270.115091224661	1
0	10598	11279.115091224661	0
0	10678	11356.700457546283	1
0	10679	11356.81440975191	0
0	10694	11371.004975757999	1
0	10695	11374.117741149046	0
0	10764	11409.553712648875	1
0	10771	11416.441591984646	0
0	10796	11434.40481829552	1
0	10797	11435.669993682727	0
0	10803	11438.466807001593	1
0	10804	11441.669993682727	0
0	10817	11453.830247630901	1
0	10823	11459.669993682727	0
0	10870	11493.911291909181	1
0	10873	11507.42515805093	0
0	10911	11577.02077047145	1
0	10917	11581.689549578678	0
0	10925	11583.591555104972	1
0	10936	11593.442042421342	2
0	10944	11599.689549578678	1
0	10946	11599.689549578678	0
0	10954	11604.12902929685	1
0	10955	11605.689549578678	0
0	10961	11619.899147900802	1
0	10972	11623.689549578678	0
0	10995	11641.914234397288	1
0	10999	11645.909488634984	2
0	11000	11646.219838833453	1
0	11003	11652.219838833453	0
0	11050	11729.179427871338	1
0	11051	11733.106309384005	0
0	11062	11736.942159768676	1
0	11066	11743.297458620451	2
0	11072	11745.292954161178	3
0	11078	11751.106309384005	2
0	11080	11751.106309384005	1
0	11086	11751.40778977782	2
0	11094	11757.106309384005	1
0	11096	11757.106309384005	0
0	11170	11801.476313365277	1
0	11174	11803.489598349247	2
0	11177	11808.858607654919	1
0	11185	11810.538142695643	2
0	11194	11823.721800141807	3
0	11197	11826.858607654919	2
0	11199	11826.858607654919	1
0	11201	11826.858607654919	0
0	11214	11837.142959100181	1
0	11227	11852.384227455021	0
0	11370	11997.329200051189	1
0	11371	11997.399094995774	0
0	11426	12038.165317318702	1
0	11427	12040.714043917775	0
0	11487	12106.139005451396	1
0	11490	12111.267957872356	0
0	11523	12154.495959127976	1
0	11524	12161.006388326919	0
0	11563	12208.501654081441	1
0	11564	12210.925505779127	0
0	11725	12375.506133644971	1
0	11735	12382.773566315208	0
0	11782	12442.025069599794	1
0	11786	12442.4838203045	2
0	11801	12455.844860036519	1
0	11803	12455.844860036519	0
0	11841	12473.95151323407	1
0	11842	12475.687246102249	0
0	11854	12481.066212068186	1
0	11862	12484.687246102249	0
0	11872	12497.549816091325	1
0	11878	12502.687246102249	0
0	11926	12557.259341078064	1
0	11927	12557.618858145178	0
0	11940	12562.955047792859	1
0	11944	12563.785035016252	2
0	11947	12566.618858145178	1
0	11958	12568.540470586463	2
0	11959	12572.618858145178	1
0	11961	12572.618858145178	0
0	11981	12590.593614157889	1
0	11982	12590.618858145178	0
0	11988	12590.743413198646	1
0	11996	12596.618858145178	0
0	12002	12596.829645984581	1
0	12012	12614.618858145178	0
0	12121	12743.669036345773	1
0	12122	12746.424503005852	0
0	12156	12775.894438751806	1
0	12157	12779.005965191014	0
0	12238	12846.194104186856	1
0	12253	12858.876674769423	0
0	12403	12993.423749722445	1
0	12407	12995.424430797827	2
0	12412	12997.947316469667	1
0	12418	13006.947316469667	0
0	12464	13038.482455777752	1
0	12465	13041.105323285143	0
0	12536	13137.50177685206	1
0	12542	13142.030583026546	0
0	12573	13158.525179694638	1
0	12583	13172.719838783147	0
0	12625	13218.262020056739	1
0	12626	13227.35581920773	0
0	12660	13268.162410049172	1
0	12664	13269.981259760465	2
0	12665	13271.686849214543	1
0	12668	13277.686849214543	0
0	12711	13294.860983636892	1
0	12712	13296.634936195995	0
0	12778	13385.564344221821	1
0	12779	13387.918634728746	0
0	12785	13390.460564618533	1
0	12791	13405.918634728746	0
0	12876	13528.562908210072	1
0	12877	13530.658755759814	0
0	12885	13535.488962986862	1
0	12891	13536.658755759814	0
0	12976	13658.654404861091	1
0	12980	13659.14467249758	2
0	12986	13665.690540967538	1
0	12994	13672.801128796576	2
0	12995	13674.690540967538	1
0	12997	13674.690540967538	0
0	13045	13720.845303559793	1
0	13058	13731.168526060069	0
0	13072	13741.110334796052	1
0	13081	13747.127644900142	2
0	13086	13749.466756255112	1
0	13096	13750.606319249711	2
0	13102	13755.466756255112	1
0	13110	13765.121953424116	2
0	13116	13773.466756255112	1
0	13118	13773.466756255112	0
0	13181	13837.361325732646	1
0	13190	13841.543815207212	2
0	13191	13844.220961136402	1
0	13193	13844.220961136402	0
0	13201	13848.333678575261	1
0	13220	13862.220961136402	0
0	13554	14250.225129685684	1
0	13560	14260.521719730086	0
0	13705	14409.638370059429	1
0	13717	14424.197562266525	0
0	13802	14524.893810173283	1
0	13810	14529.370514754804	0
0	13816	14530.024311180239	1
0	13819	14538.370514754804	0
0	14020	14762.977578750466	1
0	14024	14765.627734662882	2
0	14025	14765.945995830758	1
0	14036	14771.276491046319	2
0	14037	14774.945995830758	1
0	14039	14774.945995830758	0
0	14089	14874.85051131941	1
0	14090	14892.085405497925	0
0	14186	14998.571857307058	1
0	14187	15000.35352867218	0
0	14219	15027.413510606736	1
0	14220	15029.88314173231	0
0	14351	15204.095528015532	1
0	14371	15217.140091895291	0
0	14392	15246.182086044992	1
0	14393	15251.599245939799	0
0	14524	15410.165976720207	1
0	14528	15420.384951749941	2
0	14529	15423.065672723896	1
0	14531	15423.065672723896	0
0	14633	15554.670240881008	1
0	14637	15561.570176346993	2
0	14638	15569.137602501784	1
0	14640	15569.137602501784	0
0	14652	15578.726561154877	1
0	14653	15590.714805720708	0
0	14727	15663.243017371322	1
0	14728	15667.981509430973	0
0	14750	15685.695221036187	1
0	14759	15693.584697078353	2
0	14760	15700.578099218711	1
0	14762	15700.578099218711	0
0	14774	15734.227584565975	1
0	14775	15741.124542442402	0
0	14781	15742.471353416778	1
0	14787	15747.124542442402	0
0	14795	15753.405861736466	1
0	14808	15765.124542442402	0
0	14871	15861.244295420904	1
0	14877	15865.446296238683	0
0	14925	15928.772116500315	1
0	14928	15944.166232126619	0
0	14968	15997.377087147486	1
0	14969	16000.735444829134	0
0	15000	16027.35685498066	1
0	15001	16032.441984461239	0
0	15070	16114.620875904063	1
0	15081	16128.899170999888	2
0	15084	16129.933718392718	1
0	15086	16129.933718392718	0
0	15092	16137.818224969752	1
0	15096	16137.82176079483	2
0	15113	16147.933718392718	1
0	15129	16161.661588009247	2
0	15132	16165.933718392718	1
0	15134	16165.933718392718	0
0	15187	16206.022636889401	1
0	15190	16209.780562338956	0
0	15196	16212.697890795971	1
0	15202	16218.780562338956	0
0	15238	16248.0334370274	1
0	15244	16256.941059810853	0
0	15297	16310.146853610107	1
0	15301	16310.183212722659	2
0	15304	16315.49982739866	1
0	15310	16330.581989017336	2
0	15311	16333.49982739866	1
0	15313	16333.49982739866	0
0	15319	16338.289804244469	1
0	15325	16342.49982739866	0
0	15331	16344.609742573178	1
0	15343	16351.49982739866	0
0	15611	16612.752856381515	1
0	15615	16617.473166824591	2
0	15621	16628.100716122755	1
0	15623	16628.100716122755	0
0	15665	16673.559962951313	1
0	15666	16674.038540997474	0
0	15728	16755.950334720086	1
0	15732	16757.94884638372	2
0	15738	16772.7548886318	1
0	15740	16772.7548886318	0
0	15822	16871.170410126351	1
0	15823	16872.171727407846	0
0	15885	16943.376766267982	1
0	15888	16951.661400063261	0
0	15949	17044.601151894917	1
0	15955	17049.542917749986	0
0	15986	17063.49346372347	1
0	16000	17077.522036210295	0
0	16036	17096.645148066885	1
0	16037	17097.77007111899	0
0	16043	17101.836325112113	1
0	16047	17102.918625839687	2
0	16048	17103.77007111899	1
0	16054	17108.043212287155	2
0	16055	17109.77007111899	1
0	16057	17109.77007111899	0
0	16140	17202.213838262371	1
0	16144	17209.148707280637	2
0	16145	17210.938866555896	1
0	16147	17210.938866555896	0
0	16209	17275.698794440598	1
0	16213	17277.319435860924	0
0	16228	17285.471540543604	1
0	16231	17295.319435860924	0
0	16306	17401.563723262593	1
0	16307	17405.909907680073	0
0	16333	17431.380881018269	1
0	16339	17438.45544968009	0
0	16345	17438.941427077849	1
0	16355	17456.45544968009	0
0	16413	17520.678263097709	1
0	16421	17524.166505921687	0
0	16450	17550.374295382054	1
0	16460	17556.037725599617	0
0	16650	17793.327980524793	1
0	16665	17803.181810656988	0
0	16691	17819.127233677964	1
0	16694	17824.986195772754	0
0	16752	17849.48054265888	1
0	16759	17852.863388942145	2
0	16760	17854.179205260226	1
0	16774	17863.179205260226	0
0	16816	17912.722903151037	1
0	16829	17922.982899687168	0
0	16842	17926.857705081108	1
0	16843	17931.982899687168	0
0	16942	18079.589446820646	1
0	16943	18081.587559977777	0
0	16970	18115.43715231174	1
0	16971	18116.251463728766	0
0	17017	18145.24179078808	1
0	17029	18159.239703148979	0
0	17051	18191.509777118895	1
0	17057	18197.942236350182	2
0	17061	18200.342177616435	3
0	17062	18208.060075380593	2
0	17064	18208.060075380593	1
0	17072	18214.060075380593	0
0	17132	18286.619050260473	1
0	17135	18289.061837700855	0
0	17146	18295.737169194044	1
0	17157	18306.846412488195	2
0	17158	18307.061837700855	1
0	17160	18307.061837700855	0
0	17237	18401.856205443236	1
0	17243	18409.010216466342	0
0	17369	18551.518813442144	1
0	17391	18564.243365229189	0
0	17410	18583.334244522985	1
0	17411	18584.483552150452	0
0	17673	18884.239621278608	1
0	17679	18887.322596791389	0
0	17685	18891.570605451092	1
0	17688	18893.322596791389	0
0	17778	19027.852035014676	1
0	17782	19030.537788870304	2
0	17787	19032.07704480504	1
0	17798	19041.07704480504	0
0	17854	19097.778297725529	1
0	17865	19101.059642810117	0
0	17929	19174.026838254397	1
0	17938	19180.445070450393	2
0	17942	19181.651184594167	3
0	17948	19185.445388121187	4
0	17959	19191.915220199499	3
0	17961	19191.915220199499	2
0	17963	19191.915220199499	1
0	17965	19191.915220199499	0
0	18105	19275.005274171482	1
0	18111	19280.190339972223	0
0	18127	19287.575756246759	1
0	18137	19296.538041709276	0
0	18187	19325.5791822707	1
0	18188	19327.897023912271	0
0	18194	19329.292581306704	1
0	18195	19333.897023912271	0
0	18208	19363.305233581714	1
0	18217	19364.223770608578	2
0	18228	19375.135471138691	3
0	18229	19376.338581836171	2
0	18231	19376.338581836171	1
0	18233	19376.338581836171	0
0	18246	19382.757497406452	1
0	18249	19385.338581836171	0
0	18255	19388.280942939357	1
0	18259	19397.298430164608	2
0	18260	19403.338581836171	1
0	18262	19403.338581836171	0
0	18268	19409.047340352827	1
0	18286	19421.338581836171	0
0	18309	19452.711382966834	1
0	18317	19468.75689920901	0
0	18410	19542.503762527479	1
0	18413	19551.350533123307	0
0	18439	19593.198506612453	1
0	18445	19601.882223931736	0
0	18465	19617.240040873288	1
0	18475	19634.780021166895	0
0	18606	19848.183108374607	1
0	18617	19857.946299287861	0
0	18640	19897.461348506116	1
0	18646	19900.970053799042	0
0	18652	19903.604640854586	1
0	18655	19918.970053799042	0
0	18714	19979.134325883098	1
0	18715	19984.092499412369	0
0	18807	20063.275044924159	1
0	18813	20075.185339452805	0
0	18832	20082.304526339978	1
0	18845	20086.508264138434	2
0	18846	20087.434988010444	1
0	18856	20096.434988010444	0
0	18922	20183.175921489722	1
0	18926	20183.338774319025	2
0	18929	20189.416024009832	1
0	18932	20195.416024009832	0
0	18951	20219.197584961446	1
0	18955	20219.796464507326	2
0	18964	20228.835323197893	3
0	18965	20230.070160123354	2
0	18967	20230.070160123354	1
0	18969	20230.070160123354	0
0	18984	20241.1608685593	1
0	18988	20243.984308795953	2
0	18992	20245.869004198044	3
0	18996	20251.186434547852	4
0	18997	20254.71186735777	3
0	18999	20254.71186735777	2
0	19001	20254.71186735777	1
0	19003	20254.71186735777	0
0	19009	20268.043400916892	1
0	19010	20272.71186735777	0
0	19016	20280.811731035555	1
0	19017	20281.71186735777	0
0	19083	20348.484733825798	1
0	19087	20348.707252363416	2
0	19088	20352.65393167331	1
0	19094	20354.491991587349	2
0	19098	20354.834841173455	3
0	19101	20361.65393167331	2
0	19103	20361.65393167331	1
0	19105	20361.65393167331	0
0	19215	20457.003953039674	1
0	19226	20465.943001303695	0
0	19256	20519.533572822046	1
0	19257	20522.386153445007	0
0	19344	20595.396604302909	1
0	19354	20605.600415027057	0
0	19400	20654.715191763066	1
0	19410	20664.581321187992	0
0	19422	20667.019077672006	1
0	19441	20672.451929390004	2
0	19442	20673.74657663781	1
0	19453	20678.545359342497	2
0	19476	20691.74657663781	1
0	19478	20691.74657663781	0
0	19604	20815.800180272632	1
0	19609	20816.996255811062	0
0	19668	20877.164243964611	1
0	19678	20890.282791778569	0
0	19872	21092.612375640881	1
0	19873	21094.182773340268	0
0	20158	21351.360414408536	1
0	20163	21360.304473883334	0
0	20169	21363.384087999602	1
0	20177	21378.304473883334	0
0	20271	21453.278997554768	1
0	20275	21459.303853639704	2
0	20276	21461.691454521727	1
0	20278	21461.691454521727	0
0	20304	21474.05110256978	1
0	20305	21481.728709771076	0
0	20346	21529.027888543535	1
0	20347	21531.123966062905	0
0	20444	21660.587066314007	1
0	20445	21668.987185046909	0
0	20522	21738.240056940721	1
0	20535	21746.294373183092	2
0	20536	21750.685860902013	1
0	20538	21750.685860902013	0
0	20560	21787.748909722912	1
0	20561	21788.867551407131	0
0	20615	21845.774523422993	1
0	20650	21861.139166977065	0
0	20678	21869.132180339108	1
0	20679	21872.049871075894	0
0	20687	21873.376811901665	1
0	20695	21881.049871075894	0
0	20712	21885.833016548764	1
0	20726	21899.441689741034	0
0	20785	21959.803357090983	1
0	20789	21960.616287924712	2
0	20790	21964.811931769818	1
0	20792	21964.811931769818	0
0	20831	22001.51533020011	1
0	20835	22002.418958348014	2
0	20838	22005.907887769335	1
0	20849	22021.100916790979	2
0	20850	22023.907887769335	1
0	20852	22023.907887769335	0
0	21092	22288.40719443126	1
0	21101	22292.206346151417	2
0	21105	22292.425081067799	3
0	21110	22296.347799124093	2
0	21112	22296.347799124093	1
0	21115	22314.347799124093	0
0	21270	22452.409909790657	1
0	21276	22456.721860826788	2
0	21295	22461.992326222954	1
0	21297	22461.992326222954	0
0	21303	22463.152755664125	1
0	21325	22479.992326222954	0
0	21587	22731.439324381369	1
0	21600	22744.191253587936	0
0	21614	22749.435569514945	1
0	21620	22762.283909847132	0
0	21646	22797.791810869672	1
0	21656	22810.006627952231	0
0	21675	22830.861998866397	1
0	21681	22835.473449747294	0
0	21687	22836.082860361511	1
0	21698	22849.149998007853	2
0	21701	22853.473449747294	1
0	21703	22853.473449747294	0
0	21714	22858.761677390136	1
0	21715	22859.473449747294	0
0	21721	22860.821925168708	1
0	21722	22865.473449747294	0
0	21790	22917.94090850182	1
0	21791	22920.736713726808	0
0	21799	22923.215034438835	1
0	21805	22929.736713726808	0
0	21818	22939.621075019252	1
0	21826	22947.736713726808	0
0	21847	22969.232635488387	1
0	21848	22976.381066816814	0
0	21854	22981.195265970142	1
0	21864	22985.381066816814	0
0	21921	23029.905259380393	1
0	21925	23030.23737354515	2
0	21931	23038.179445560669	3
0	21935	23043.352292585883	4
0	21936	23047.349541993126	3
0	21938	23047.349541993126	2
0	21940	23047.349541993126	1
0	21942	23047.349541993126	0
0	22084	23189.263960150789	1
0	22094	23197.85997744138	0
0	22115	23226.909111780247	1
0	22116	23237.501712194509	0
0	22195	23336.823065248971	1
0	22210	23351.089590212755	0
0	22319	23442.946036940621	1
0	22327	23453.017807316473	0
0	22392	23502.820002863898	1
0	22397	23505.461874976098	0
0	22546	23670.668652878383	1
0	22551	23677.740783026453	0
0	22591	23717.502915571643	1
0	22592	23733.7265874298	0
0	22611	23746.735466423996	1
0	22620	23751.80242378645	2
0	22628	23761.505694156458	1
0	22630	23761.505694156458	0
0	22675	23807.846222371906	1
0	22676	23809.887059194712	0
0	22740	23872.6493615623	1
0	22746	23875.876894670492	2
0	22750	23879.231682535162	3
0	22751	23879.675927968722	2
0	22762	23892.881074294076	3
0	22763	23897.675927968722	2
0	22765	23897.675927968722	1
0	22767	23897.675927968722	0
0	22874	24028.021189799664	1
0	22878	24029.054890280321	2
0	22890	24042.898777107932	1
0	22892	24042.898777107932	0
0	22937	24088.278226746169	1
0	22940	24091.472701190432	0
0	22985	24120.425704701587	1
0	22993	24128.914880218298	0
0	23146	24272.066391826957	1
0	23147	24277.308851137719	0
0	23153	24278.216080996107	1
0	23162	24282.11373042933	2
0	23165	24286.308851137719	1
0	23168	24304.308851137719	0
0	23194	24335.771686190191	1
0	23207	24342.58615602146	0
0	23359	24436.897779867227	1
0	23372	24451.171633130337	0
0	23405	24484.082045939431	1
0	23416	24491.677373167225	2
0	23422	24497.514571338971	1
0	23424	24497.514571338971	0
0	23439	24503.944378392198	1
0	23445	24508.768293122726	2
0	23446	24515.514571338971	1
0	23448	24515.514571338971	0
0	23569	24631.912830643285	1
0	23570	24632.577094536133	0
0	23578	24634.883087582334	1
0	23582	24639.636550982091	2
0	23583	24641.577094536133	1
0	23586	24647.577094536133	0
0	23592	24650.2168353628	1
0	23593	24653.577094536133	0
0	23700	24749.569925742117	1
0	23704	24752.487092122393	2
0	23712	24766.603672991631	1
0	23714	24766.603672991631	0
0	23796	24892.787906126675	1
0	23807	24899.494964491404	2
0	23815	24906.347328076041	1
0	23817	24906.347328076041	0
0	23825	24914.353927015021	1
0	23826	24924.347328076041	0
0	23874	24983.919477959637	1
0	23878	24986.293243662384	2
0	23891	24995.822543811389	1
0	23893	24995.822543811389	0
0	23951	25042.569827265332	1
0	23955	25045.703756577739	2
0	23962	25050.509504242328	3
0	23966	25051.560283662219	4
0	23967	25055.913782782956	3
0	23969	25055.913782782956	2
0	23971	25055.913782782956	1
0	23973	25055.913782782956	0
0	24055	25154.556956232426	1
0	24058	25156.451735213243	0
0	24076	25170.877993123217	1
0	24077	25174.451735213243	0
0	24111	25203.417460762892	1
0	24115	25203.80370517053	2
0	24119	25205.329552390266	3
0	24120	25206.836790826141	2
0	24125	25215.836790826141	1
0	24127	25215.836790826141	0
0	24158	25246.642410692534	1
0	24175	25251.825786667458	0
0	24197	25260.557600071121	1
0	24203	25265.556074794668	2
0	24211	25270.842589024582	1
0	24213	25270.842589024582	0
0	24219	25270.894267378943	1
0	24227	25279.842589024582	0
0	24256	25305.941011473481	1
0	24262	25311.36745558366	0
0	24432	25457.811361011967	1
0	24433	25459.183784893631	0
0	24439	25466.349277336274	1
0	24440	25468.183784893631	0
0	24451	25477.990249027844	1
0	24454	25486.183784893631	0
0	24488	25544.376467351712	1
0	24499	25549.144577418254	0
0	24505	25551.732858561542	1
0	24508	25555.144577418254	0
0	24523	25573.247976855618	1
0	24531	25586.994513704177	0
0	24658	25710.096136166268	1
0	24667	25713.270048850642	2
0	24673	25722.402800504345	3
0	24674	25727.072411767279	2
0	24676	25727.072411767279	1
0	24678	25727.072411767279	0
0	24731	25808.13237195257	1
0	24737	25812.742660045369	0
0	24896	25981.424965568906	1
0	24900	25982.204300639721	2
0	24901	25982.816061109737	1
0	24911	25988.816061109737	0
0	24944	26004.795928071055	1
0	24948	26005.293189055611	2