version 3
run General-0-20230508-22:30:32-85298
attr configname General
attr datetime 20230508-22:30:32
attr datetimef 20230508-223032
attr experiment General
attr inifile omnetpp.ini
attr iterationvars ""
attr iterationvarsd ""
attr iterationvarsf ""
attr measurement ""
attr network Design1
attr processid 85298
attr repetition 0
attr replication #0
attr resultdir results
attr runnumber 0
attr seedset 0
config network Design1
config **.source.interArrivalTime exponential(7.2s)
config **.source.numJobs 10000
config **.server1.serviceTime 3s
config **.server2.serviceTime 3s
config **.server3.serviceTime 3s

vector 0 Design1.customQueue1 queueLength:vector ETV
attr interpolationmode sample-hold
attr recordingmode vector
attr title "queue length"
vector 1 Design1.customQueue2 queueLength:vector ETV
attr interpolationmode sample-hold
attr recordingmode vector
attr title "queue length"
vector 2 Design1.customQueue3 queueLength:vector ETV
attr interpolationmode sample-hold
attr recordingmode vector
attr title "queue length"
0	0	0	0
1	0	0	0
2	0	0	0
vector 3 Design1.customSink lifeTime:vector ETV
attr interpolationmode none
attr recordingmode vector
attr title "lifetime of arrived jobs"
attr unit s
3	7	8.730296432874	3
3	14	15.199931229958	3
3	21	20.867779437828	3
3	28	24.360702216624	3
3	35	48.228070632108	3
3	42	60.267991274448	3
3	49	78.975420692561	3
3	56	86.496630752379	3
3	63	97.338277414568	3
3	70	101.95858345785	3
3	77	112.877642470579	3
3	84	119.158355074882	3
3	96	124.470711575525	3
3	98	125.955375206144	3
3	110	132.005785086552	3
3	112	133.173167810563	3
3	119	153.894155963762	3
0	604	681.39110950226	1
0	605	682.190754209197	0
0	653	742.956828111961	1
0	654	743.246536781007	0
0	730	822.719562630781	1
0	736	823.231821628078	0
0	898	970.637247144361	1
0	899	971.368094937607	0
0	1262	1268.233684252764	1
0	1263	1268.700959077669	0
0	1388	1352.143983110936	1
0	1392	1352.329945030802	2
0	1393	1352.861745975759	1
0	1405	1355.861745975759	0
0	1491	1430.76334671386	1
0	1499	1433.701800979616	0
0	1626	1593.529877859003	1
0	1627	1595.272557724347	0
0	1829	1834.115509905426	1
0	1835	1836.384358757243	0
0	1843	1839.25466314666	1
0	1844	1839.384358757243	0
0	1899	1887.485098338837	1
0	1900	1887.7482413132	0
0	1962	1952.498223636086	1
0	1963	1953.682817965771	0
0	1969	1954.809406772915	1
0	1970	1956.682817965771	0
0	2060	2026.779431566596	1
0	2061	2027.440750573143	0
0	2200	2220.328124449256	1
0	2201	2220.716748268572	0
0	2298	2307.8963356325	1
0	2304	2310.892403568795	0
0	2310	2311.853141290709	1
0	2318	2313.892403568795	0
0	2905	2902.989080211521	1
0	2908	2905.664975949556	0
0	2991	2985.053231190691	1
0	2995	2987.40173293286	2
0	2996	2987.832379285771	1
0	3004	2990.832379285771	0
0	3129	3109.504519042904	1
0	3130	3109.604589901551	0
0	3439	3480.673837870907	1
0	3445	3483.398388153311	0
0	3717	3678.128910566876	1
0	3718	3678.309105438621	0
0	3915	3901.816349053998	1
0	3916	3901.85641063328	0
0	3941	3923.143261404058	1
0	3944	3925.200368434432	0
0	3964	3937.016379206901	1
0	3965	3938.994585492446	0
0	4398	4423.008662218981	1
0	4399	4423.136458104097	0
0	4762	4853.227593057256	1
0	4763	4853.553894239991	0
0	4825	4929.675463537034	1
0	4826	4930.693605721319	0
0	4958	5011.693493720086	1
0	4959	5013.280426134202	0
0	5259	5399.115575030421	1
0	5263	5400.019796064626	2
0	5264	5401.242372313293	1
0	5270	5402.780177970275	2
0	5271	5404.242372313293	1
0	5274	5407.242372313293	0
0	5334	5471.446342148009	1
0	5337	5473.936701321427	0
0	5362	5487.235652820285	1
0	5368	5487.871989529208	0
0	5595	5725.496268898726	1
0	5601	5728.061730687412	0
0	5609	5730.175631994031	1
0	5610	5731.061730687412	0
0	5616	5731.191546335971	1
0	5617	5734.061730687412	0
0	5637	5742.470052850872	1
0	5638	5744.293856321343	0
0	6743	7062.001776365658	1
0	6744	7064.165198656875	0
0	6902	7194.419856519997	1
0	6905	7197.240414264205	0
0	7520	7838.292872114009	1
0	7521	7838.327497630439	0
0	7632	7943.663452155271	1
0	7633	7945.7691290594	0
0	7693	8000.023593062279	1
0	7696	8002.271686610859	0
0	7730	8045.161957729772	1
0	7731	8045.790826244633	0
0	7737	8047.75297121897	1
0	7738	8048.790826244633	0
0	7744	8050.625844809311	1
0	7745	8051.790826244633	0
0	7959	8315.642836824353	1
0	7960	8317.16131803576	0
0	7987	8333.442741022773	1
0	7990	8334.049202645728	0
0	8437	8765.568414288069	1
0	8438	8767.15636101763	0
0	8696	9035.396033463723	1
0	8697	9036.092607074192	0
0	8752	9063.350739935058	1
0	8753	9065.393750929916	0
0	8864	9212.431886901444	1
0	8868	9212.444728878389	2
0	8869	9213.420686971907	1
0	8872	9216.420686971907	0
0	9081	9389.740264854079	1
0	9092	9392.600383628018	0
0	9098	9394.051722596259	1
0	9103	9395.600383628018	0
0	9249	9606.011450979571	1
0	9250	9606.919150100467	0
0	9340	9710.408867108335	1
0	9346	9713.349675980521	0
0	9354	9714.38270775022	1
0	9358	9715.914608739066	2
0	9359	9716.349675980521	1
0	9362	9719.349675980521	0
0	9501	9864.540004066081	1
0	9502	9865.258425443423	0
0	9676	10010.011024439931	1
0	9677	10011.064291328504	0
0	9718	10045.919232362163	1
0	9719	10046.02103928761	0
0	10061	10410.0410019217	1
0	10062	10410.847597104942	0
0	10145	10474.733343921661	1
0	10146	10475.276061656955	0
0	10299	10634.448040908989	1
0	10300	10634.545047509313	0
0	10509	10934.639562477914	1
0	10510	10935.447004959881	0
0	10782	11269.641072018239	1
0	10783	11271.404973961778	0
0	10880	11371.004975757999	1
0	10881	11371.117741149046	0
0	10955	11409.553712648875	1
0	10956	11410.441591984646	0
0	11188	11641.914234397288	1
0	11189	11643.219838833453	0
0	11195	11645.909488634984	1
0	11196	11646.219838833453	0
0	11272	11745.292954161178	1
0	11273	11746.297458620451	0
0	11368	11801.476313365277	1
0	11371	11802.858607654919	0
0	11377	11803.489598349247	1
0	11378	11805.858607654919	0
0	11412	11837.142959100181	1
0	11413	11837.384227455021	0
0	11692	12106.139005451396	1
0	11693	12108.267957872356	0
0	11727	12154.495959127976	1
0	11728	12155.006388326919	0
0	11937	12375.506133644971	1
0	11938	12376.773566315208	0
0	12000	12442.4838203045	1
0	12006	12445.025069599794	0
0	12161	12563.785035016252	1
0	12162	12565.955047792859	0
0	12173	12568.540470586463	1
0	12174	12568.955047792859	0
0	12203	12590.743413198646	1
0	12209	12593.593614157889	0
0	12371	12775.894438751806	1
0	12372	12776.005965191014	0
0	12630	12995.424430797827	1
0	12631	12996.423749722445	0
0	12889	13269.981259760465	1
0	12890	13271.162410049172	0
0	13204	13658.654404861091	1
0	13208	13659.14467249758	2
0	13209	13659.690540967538	1
0	13217	13662.690540967538	0
0	14268	14765.627734662882	1
0	14269	14765.977578750466	0
0	14331	14874.85051131941	1
0	14332	14877.085405497925	0
0	14639	15246.182086044992	1
0	14640	15248.599245939799	0
0	15129	15861.244295420904	1
0	15130	15862.446296238683	0
0	15185	15928.772116500315	1
0	15186	15929.166232126619	0
0	15332	16114.620875904063	1
0	15333	16114.933718392718	0
0	15360	16137.82176079483	1
0	15361	16140.818224969752	0
0	15451	16206.022636889401	1
0	15452	16206.780562338956	0
0	15570	16310.183212722659	1
0	15571	16313.146853610107	0
0	15885	16612.752856381515	1
0	15886	16613.100716122755	0
0	16004	16755.950334720086	1
0	16005	16757.7548886318	0
0	16011	16757.94884638372	1
0	16012	16760.7548886318	0
0	16163	16943.376766267982	1
0	16166	16945.661400063261	0
0	16333	17102.918625839687	1
0	16334	17104.836325112113	0
0	16592	17401.563723262593	1
0	16593	17402.909907680073	0
0	16620	17431.380881018269	1
0	16626	17432.45544968009	0
0	16984	17819.127233677964	1
0	16985	17821.986195772754	0
0	17046	17849.48054265888	1
0	17050	17851.179205260226	0
0	17056	17852.863388942145	1
0	17060	17854.179205260226	0
0	17348	18191.509777118895	1
0	17349	18193.060075380593	0
0	17362	18200.342177616435	1
0	17363	18200.942236350182	0
0	17540	18401.856205443236	1
0	17543	18403.010216466342	0
0	17978	18884.239621278608	1
0	17979	18884.322596791389	0
0	18097	19030.537788870304	1
0	18103	19030.852035014676	0
0	18237	19174.026838254397	1
0	18243	19176.915220199499	0
0	18258	19181.651184594167	1
0	18259	19183.445070450393	0
0	18265	19185.445388121187	1
0	18266	19186.445070450393	0
0	18440	19287.575756246759	1
0	18450	19290.538041709276	0
0	18536	19364.223770608578	1
0	18537	19366.305233581714	0
0	18629	19452.711382966834	1
0	18630	19453.75689920901	0
0	18732	19542.503762527479	1
0	18735	19545.350533123307	0
0	18762	19593.198506612453	1
0	18763	19595.882223931736	0
0	18788	19617.240040873288	1
0	18791	19619.780021166895	0
0	18965	19897.461348506116	1
0	18966	19897.970053799042	0
0	19161	20082.304526339978	1
0	19167	20084.434988010444	0
0	19180	20086.508264138434	1
0	19181	20087.434988010444	0
0	19259	20183.338774319025	1
0	19260	20186.175921489722	0
0	19287	20219.796464507326	1
0	19293	20222.197584961446	0
0	19322	20243.984308795953	1
0	19323	20244.1608685593	0
0	19329	20245.869004198044	1
0	19330	20247.1608685593	0
0	19420	20348.484733825798	1
0	19424	20348.707252363416	2
0	19425	20349.65393167331	1
0	19428	20352.65393167331	0
0	19434	20354.491991587349	1
0	19438	20354.834841173455	2
0	19439	20355.65393167331	1
0	19442	20358.65393167331	0
0	19558	20457.003953039674	1
0	19559	20459.943001303695	0
0	19770	20667.019077672006	1
0	19771	20667.74657663781	0
0	20631	21453.278997554768	1
0	20632	21455.691454521727	0
0	20666	21474.05110256978	1
0	20667	21475.728709771076	0
0	20983	21845.774523422993	1
0	20984	21846.139166977065	0
0	21156	21959.803357090983	1
0	21160	21960.616287924712	2
0	21161	21961.811931769818	1
0	21164	21964.811931769818	0
0	21212	22002.418958348014	1
0	21213	22004.51533020011	0
0	21492	22292.425081067799	1
0	21493	22295.206346151417	0
0	22113	22860.821925168708	1
0	22116	22861.761677390136	0
0	22318	23029.905259380393	1
0	22322	23030.23737354515	2
0	22323	23032.349541993126	1
0	22326	23035.349541993126	0
0	22332	23038.179445560669	1
0	22333	23038.349541993126	0
0	22951	23670.668652878383	1
0	22952	23671.740783026453	0
0	22997	23717.502915571643	1
0	22998	23718.7265874298	0
0	23298	24029.054890280321	1
0	23299	24031.021189799664	0
0	24005	24634.883087582334	1
0	24006	24634.912830643285	0
0	24129	24749.569925742117	1
0	24130	24751.603672991631	0
0	24138	24752.487092122393	1
0	24139	24754.603672991631	0
0	24313	24986.293243662384	1
0	24314	24986.919477959637	0
0	24411	25051.560283662219	1
0	24412	25053.509504242328	0
0	24549	25203.417460762892	1
0	24555	25203.80370517053	2
0	24556	25203.836790826141	1
0	24562	25205.329552390266	2
0	24563	25206.836790826141	1
0	24566	25209.836790826141	0
0	25111	25710.096136166268	1
0	25117	25712.072411767279	0
0	25123	25713.270048850642	1
0	25126	25715.072411767279	0
0	25188	25808.13237195257	1
0	25194	25809.742660045369	0
0	25363	25982.204300639721	1
0	25364	25984.424965568906	0
0	25403	26004.795928071055	1
0	25407	26005.293189055611	2
0	25410	26007.28447280863	1
0	25416	26009.127181674493	2
0	25417	26010.28447280863	1
0	25420	26013.28447280863	0
0	25552	26160.790416647238	1
0	25553	26160.950569710363	0
0	25788	26409.405372563297	1
0	25789	26411.014552586319	0
0	25930	26539.757332009705	1
0	25931	26541.487873387166	0
0	26091	26714.132226578693	1
0	26092	26716.999900992427	0
0	26474	27141.086972271538	1
0	26480	27143.713871562964	0
0	26546	27191.003670774621	1
0	26547	27193.773457028361	0
0	26609	27260.496032535837	1
0	26610	27263.471418709203	0
0	26623	27273.844648860043	1
0	26624	27275.417535094987	0
0	26684	27323.518530736115	1
0	26690	27325.774643149851	2
0	26691	27326.33969501318	1
0	26694	27329.33969501318	0
0	26854	27470.583399077878	1
0	26855	27472.487289463578	0
0	26917	27528.440278916858	1
0	26918	27528.547996861187	0
0	27281	27897.839808253971	1
0	27282	27900.623169738162	0
0	27398	28031.208439717489	1
0	27411	28032.633670704425	0
0	27951	28635.62961845802	1
0	27952	28637.640326890318	0
0	27967	28652.206944546795	1
0	27968	28653.995106535952	0
0	27981	28664.981076881277	1
0	27982	28667.231459611576	0
0	27995	28696.011985777716	1
0	28001	28698.281772501432	0
0	28170	28840.344946207154	1
0	28171	28840.836116363834	0
0	28182	28841.836802734337	1
0	28183	28843.836116363834	0
0	28268	28896.199839779868	1
0	28269	28896.781903403652	0
0	28464	29108.15980741222	1
0	28465	29109.38858974827	0
0	28849	29533.706902878696	1
0	28850	29534.651279699617	0
0	28856	29535.327273512819	1
0	28857	29537.651279699617	0
0	29292	29926.452431759573	1
0	29296	29927.866393057257	0
0	29444	30093.706617842484	1
0	29445	30094.638301027032	0
0	29451	30096.257186671361	1
0	29457	30097.638301027032	0
0	29710	30449.513941290684	1
0	29711	30450.645616347296	0
0	29962	30678.253031903641	1
0	29963	30680.222693980244	0
0	30221	30956.27268935132	1
0	30222	30959.067071431258	0
0	30445	31135.615430124089	1
0	30446	31136.377448458768	0
0	30529	31211.231993829454	1
0	30530	31212.670073144427	0
0	30611	31292.647144211495	1
0	30612	31293.327974539638	0
0	30620	31296.050418963549	1
0	30621	31296.327974539638	0
0	30641	31320.553045177829	1
0	30642	31320.86990083307	0
0	30711	31400.096543169358	1
0	30712	31402.524441952865	0
0	30949	31674.259521277525	1
0	30950	31676.861278309079	0
0	31194	31873.561331208449	1
0	31195	31876.393819020907	0
0	31448	32042.146385781332	1
0	31452	32043.629911989985	2
0	31456	32044.080399344044	1
0	31461	32047.080399344044	0
0	31577	32190.787299700793	1
0	31580	32193.238984324241	0
0	31598	32223.500155312948	1
0	31601	32225.899983824169	0
0	31628	32254.872648734715	1
0	31629	32257.134348864758	0
0	31691	32332.047421097744	1
0	31692	32335.021713292752	0
0	31908	32575.090486209727	1
0	31909	32576.551600261528	0
0	32009	32691.59954343937	1
0	32017	32692.833403369285	2
0	32018	32694.473882999775	1
0	32021	32697.473882999775	0
0	32321	32994.842582114203	1
0	32322	32997.535934710953	0
0	32664	33370.491523554936	1
0	32665	33371.822229000688	0
0	32718	33383.301219374167	1
0	32721	33384.943442061102	0
0	32839	33561.396514065751	1
0	32840	33563.639233425415	0
0	32846	33563.949477409767	1
0	32847	33566.639233425415	0
0	33306	34105.847638074861	1
0	33314	34108.789163047061	0
0	33325	34109.341603291462	1
0	33328	34111.789163047061	0
0	33770	34583.82978944233	1
0	33774	34584.718766502177	2
0	33775	34585.191122546717	1
0	33778	34588.191122546717	0
0	33784	34588.387914182478	1
0	33785	34591.191122546717	0
0	33840	34634.862419913761	1
0	33841	34636.754226283383	0
0	33847	34637.007429423052	1
0	33853	34639.754226283383	0
0	34043	34868.30364082971	1
0	34044	34868.655803394631	0
0	34372	35171.845810592734	1
0	34378	35173.426095184972	0
0	34449	35282.519970024247	1
0	34450	35285.501100718018	0
0	35002	35731.496899041318	1
0	35003	35731.767462008849	0
0	35135	35899.43295204314	1
0	35136	35900.13067282173	0
0	35499	36272.761241637684	1
0	35500	36274.312324105439	0
0	35751	36561.593502991092	1
0	35752	36564.34663944696	0
0	36234	37171.111837442677	1
0	36240	37172.368027413278	0
0	36290	37227.803094305833	1
0	36291	37230.749515201283	0
0	36374	37322.227911782397	1
0	36375	37322.230851266636	0
0	36472	37396.628683236039	1
0	36473	37399.146143912409	0
0	36773	37698.206320383137	1
0	36774	37698.317151981267	0
0	36920	37834.94447923795	1
0	36921	37834.979785254409	0
0	38082	39040.916539843017	1
0	38083	39043.711003491689	0
0	38439	39427.576229363175	1
0	38440	39428.486732277662	0
0	38698	39661.531502609017	1
0	38699	39663.746645662981	0
0	38782	39764.680262006476	1
0	38783	39767.550061707918	0
0	38829	39799.774525067025	1
0	38832	39801.813980896445	0
0	39191	40154.313933136027	1
0	39194	40155.870618836307	0
0	39643	40634.792512021912	1
0	39644	40637.779070675198	0
0	39839	40826.367454112361	1
0	39840	40827.839322714575	0
0	39907	40912.900934335903	1
0	39910	40914.341694826055	0
0	39965	40961.56783431063	1
0	39966	40964.273133641745	0
0	39998	40977.251977693701	1
0	39999	40977.580653614341	0
0	40378	41363.294445522631	1
0	40379	41364.479809797259	0
0	40392	41369.098904581169	1
0	40393	41370.936938963652	0
0	40439	41396.827848481401	1
0	40440	41397.767605610628	0
0	40546	41515.48241400786	1
0	40552	41516.60953622549	0
0	40630	41578.699455000493	1
0	40631	41578.940614288631	0
0	40728	41696.326496324733	1
0	40729	41697.49557814404	0
0	40903	41862.13341347105	1
0	40904	41864.10772505833	0
0	41123	42105.759089340017	1
0	41133	42107.8816440459	0
0	41183	42165.31187674089	1
0	41184	42167.669872371687	0
0	41337	42314.24803077565	1
0	41343	42316.556640385939	0
0	41568	42601.326824706375	1
0	41569	42601.767214723815	0
0	41643	42687.18754606163	1
0	41644	42688.33120191739	0
0	41713	42751.544198666554	1
0	41716	42752.828233951879	0
0	41876	42945.853224925577	1
0	41877	42946.302085605067	0
0	41967	43040.654979487621	1
0	41971	43040.676112808808	2
0	41972	43041.251552364225	1
0	41975	43044.251552364225	0
0	42007	43082.284516618721	1
0	42012	43082.864129767555	0
0	42161	43232.04621626343	1
0	42162	43233.171953881646	0
0	42233	43311.256446962977	1
0	42234	43312.149151069727	0
0	42520	43639.493496902946	1
0	42521	43639.539585956798	0
0	42700	43836.654140698411	1
0	42703	43839.487203196479	0
0	42835	43993.350000350711	1
0	42836	43995.153921980916	0
0	42842	43997.893607697438	1
0	42843	43998.153921980916	0
0	42912	44073.95100332098	1
0	42913	44074.478637305982	0
0	42975	44136.239560229171	1
0	42976	44136.346319679836	0
0	43017	44155.968374037539	1
0	43018	44158.505059138281	0
0	43064	44177.32919759715	1
0	43077	44180.14170135532	0
0	43591	44684.957441456959	1
0	43592	44685.87122884941	0
0	43626	44709.654962142721	1
0	43627	44710.592757043073	0
0	43934	45087.753174120417	1
0	43935	45088.067982560821	0
0	44053	45175.619486195746	1
0	44054	45176.176264237991	0
0	44067	45186.90928073378	1
0	44068	45188.314189135094	0
0	44088	45199.70809343822	1
0	44089	45202.64891258355	0
0	44109	45209.47643368781	1
0	44110	45211.882171474404	0
0	44116	45214.218132517081	1
0	44117	45214.882171474404	0
0	44158	45244.049407086799	1
0	44159	45244.507401422778	0
0	44226	45279.198506520597	1
0	44227	45281.58426909183	0
0	44240	45283.27463230888	1
0	44241	45284.58426909183	0
0	44261	45292.083421362776	1
0	44265	45292.915345377084	2
0	44269	45292.955917928217	3
0	44270	45293.64080134059	2
0	44278	45294.983822185202	3
0	44279	45296.64080134059	2
0	44285	45298.945144984444	3
0	44286	45299.64080134059	2
0	44289	45302.64080134059	1
0	44297	45305.64080134059	0
0	44333	45329.603577020214	1
0	44334	45330.2186410556	0
0	44514	45519.883972094078	1
0	44518	45522.113531531544	0
0	44524	45522.709299009051	1
0	44528	45525.113531531544	0
0	44541	45527.068720489127	1
0	44542	45528.113531531544	0
0	44648	45620.291067905236	1
0	44649	45622.035935006788	0
0	44732	45677.806850279449	1
0	44733	45678.404995716008	0
0	45082	46048.973711320655	1
0	45083	46051.450783455124	0
0	45400	46367.960521685181	1
0	45405	46369.576025092179	0
0	45621	46614.945848298381	1
0	45622	46617.463950598709	0
0	45752	46696.562445156263	1
0	45755	46697.033508867734	0
0	45901	46876.874396155521	1
0	45902	46877.024866678736	0
0	46109	47082.536493693058	1
0	46110	47083.142750029329	0
0	46272	47221.174925139536	1
0	46273	47221.571746248238	0
0	46503	47468.284892496941	1
0	46512	47470.436823308496	2
0	46513	47470.486809481499	1
0	46518	47473.486809481499	0
0	46524	47473.604234878088	1
0	46525	47476.486809481499	0
0	46615	47553.964243123668	1
0	46616	47554.330862084936	0
0	46769	47708.926215208518	1
0	46775	47711.792453998119	0
0	46860	47791.424194288377	1
0	46866	47793.968459558671	0
0	47084	48036.461822232424	1
0	47085	48037.375942841923	0
0	47161	48109.552423061458	1
0	47162	48111.431517974337	0
0	47168	48114.216564997361	1
0	47169	48114.431517974337	0
0	47483	48413.313763502915	1
0	47484	48415.811423947026	0
0	47532	48467.00364478739	1
0	47533	48467.304105680113	0
0	47756	48755.469338875755	1
0	47757	48756.328534216222	0
0	48204	49295.818193623135	1
0	48213	49297.862359619806	2
0	48214	49298.625254811101	1
0	48219	49301.625254811101	0
0	48407	49573.985528072112	1
0	48408	49575.370994457603	0
0	48484	49627.026090934865	1
0	48485	49628.017412097914	0
0	48526	49655.137040793892	1
0	48527	49655.512601518446	0
0	49070	50184.763621278152	1
0	49073	50186.590583222072	0
0	49261	50411.461601430742	1
0	49265	50412.366778178577	2
0	49271	50413.496674536408	1
0	49276	50416.496674536408	0
0	49443	50688.831935567019	1
0	49444	50689.568004206879	0
0	49604	50854.104350734849	1
0	49605	50855.119179987184	0
0	49630	50873.47531792917	1
0	49631	50874.334188336505	0
0	49849	51089.98891797347	1
0	49850	51091.314885884311	0
0	49903	51126.303134438615	1
0	49906	51129.072231120816	0
0	50213	51464.942560917519	1
0	50214	51466.982587719649	0
0	50325	51561.210659791681	1
0	50331	51562.68150876364	0
0	50393	51621.817541659728	1
0	50401	51622.721715494849	0
0	50727	52061.766615314658	1
0	50730	52063.128629405294	0
0	50955	52325.370780999301	1
0	50959	52327.102695502772	2
0	50960	52327.466041011007	1
0	50963	52330.466041011007	0
0	51123	52495.322340050912	1
0	51124	52497.004219559134	0
0	51214	52556.899184405315	1
0	51215	52557.330107324416	0
0	51452	52752.808991388639	1
0	51453	52753.382486209245	0
0	51648	53002.737760494322	1
0	51649	53003.680311151701	0
0	52038	53443.495608645149	1
0	52041	53445.830698367307	0
0	52180	53540.6893954811	1
0	52181	53541.034370668095	0
0	52222	53566.984374821199	1
0	52223	53569.029608965783	0
0	52446	53747.862393620585	1
0	52452	53748.977028506921	0
0	52593	53881.48837059776	1
0	52594	53883.724648615664	0
0	52600	53883.78395757332	1
0	52601	53886.724648615664	0
0	52794	54035.178780848472	1
0	52795	54035.26501937087	0
0	53181	54507.565628715702	1
0	53182	54509.522404352612	0
0	53760	55141.596568632317	1
0	53763	55142.580939549585	0
0	53970	55299.280972749067	1
0	53971	55300.433220880127	0
0	54119	55405.169676518864	1
0	54134	55406.573445991222	0
0	54292	55511.488655966628	1
0	54293	55511.730622159397	0
0	54299	55512.11345597514	1
0	54302	55514.730622159397	0
0	54730	55930.113975292683	1
0	54734	55931.178754012731	0
0	54775	55950.212126245415	1
0	54781	55951.792519494001	0
0	55197	56444.472527003278	1
0	55198	56447.007800439536	0
0	55297	56578.258927765827	1
0	55298	56578.342764880944	0
0	55304	56578.718336794898	1
0	55313	56581.342764880944	0
0	55638	56983.20579277644	1
0	55639	56984.945632431768	0
0	55841	57194.110779696231	1
0	55842	57194.675763550864	0
0	55855	57216.690708714171	1
0	55859	57218.250154195176	2
0	55863	57218.825287773326	3
0	55864	57219.58242993624	2
0	55867	57222.58242993624	1
0	55870	57225.58242993624	0
0	56205	57615.769795953982	1
0	56206	57618.001854041671	0
0	56226	57637.126473028502	1
0	56227	57638.917884166257	0
0	56252	57664.256640326794	1
0	56255	57667.069054956872	0
0	56315	57737.939219845527	1
0	56327	57740.683254070194	0
0	56394	57858.225831991125	1
0	56395	57860.375380772419	0
0	56919	58353.742994422257	1
0	56920	58356.736398241907	0
0	57101	58523.564305959055	1
0	57102	58526.269729208051	0
0	57150	58585.545201784338	1
0	57151	58587.727579658059	0
0	57325	58814.868618732717	1
0	57326	58816.479988024871	0
0	57367	58854.090778320865	1
0	57368	58854.423957933295	0
0	57502	58988.764514601909	1
0	57511	58990.76738203312	0
0	57604	59084.06134091716	1
0	57605	59085.603578621983	0
0	57800	59239.149347655082	1
0	57801	59239.732018708219	0
0	57966	59390.719987689891	1
0	57967	59390.7281215006	0
0	57989	59402.220973070723	1
0	57990	59402.331955704212	0
0	58045	59470.065582722217	1
0	58046	59470.186650491385	0
0	58108	59609.746004447134	1
0	58109	59612.708825957083	0
0	58197	59704.823900873984	1
0	58198	59706.304987340578	0
0	58724	60406.704191284908	1
0	58725	60409.265778554406	0
0	58843	60576.606676810485	1
0	58844	60579.548120392757	0
0	58850	60581.380061696894	1
0	58851	60582.548120392757	0
0	59060	60834.505128192756	1
0	59061	60836.864140456405	0
0	59158	60935.195651730197	1
0	59159	60936.330971445723	0
0	59179	60942.644836813371	1
0	59180	60942.783864657219	0
0	59417	61200.026512729228	1
0	59418	61200.132105062772	0
0	59709	61510.856778480248	1
0	59710	61513.290830247482	0
0	59816	61597.347533802745	1
0	59817	61600.181322639595	0
0	59872	61631.759729268597	1
0	59873	61632.526929103426	0
0	59914	61664.01846484078	1
0	59915	61664.821139733035	0
0	59935	61692.907416858207	1
0	59941	61694.246898712762	0
0	60103	61936.811775627209	1
0	60104	61939.443493720705	0
0	60222	62072.490967350461	1
0	60223	62075.270519240012	0
0	60698	62479.203270321759	1
0	60699	62481.335551343271	0
0	60885	62656.870506051153	1
0	60888	62657.594702064531	0
0	60920	62690.080653946312	1
0	60921	62690.474554880811	0
0	61034	62820.837695832896	1
0	61040	62823.287534440656	0
0	61076	62839.279458254026	1
0	61077	62841.459154146011	0
0	61235	62957.688966059988	1
0	61238	62960.124885512591	0
0	61256	62980.31157375046	1
0	61259	62981.712968228582	0
0	61314	63021.879678876872	1
0	61315	63024.263224054051	0
0	61482	63148.665692008881	1
0	61483	63151.57209297639	0
0	61550	63192.687940196225	1
0	61551	63194.584474026012	0
0	61559	63195.299533321445	1
0	61560	63197.584474026012	0
0	62133	63859.08144721342	1
0	62139	63860.872556739224	0
0	62266	64016.545150301725	1
0	62270	64017.24715665556	2
0	62271	64017.631746670477	1
0	62274	64020.631746670477	0
0	62336	64071.384116615928	1
0	62337	64071.460894800178	0
0	62488	64224.487559097148	1
0	62489	64226.765623999393	0
0	62630	64371.122413319992	1
0	62631	64371.366400819444	0
0	62684	64418.514979763253	1
0	62687	64421.0196532937	0
0	62798	64512.056077855988	1
0	62799	64512.869751736846	0
0	62833	64543.22280638936	1
0	62834	64544.741020334765	0
0	62880	64556.278458605963	1
0	62883	64557.474542502369	0
0	62889	64558.337486947728	1
0	62895	64560.474542502369	0
0	62901	64561.728509516794	1
0	62904	64563.474542502369	0
0	63132	64802.254606759225	1
0	63138	64805.170646767231	2
0	63139	64805.238418278251	1
0	63142	64808.238418278251	0
0	63307	64965.128741104931	1
0	63310	64966.551898647307	0
0	63316	64966.633681153736	1
0	63317	64969.551898647307	0
0	63337	65000.330461550534	1
0	63338	65000.964072240285	0
0	63785	65440.916447303285	1
0	63786	65443.018559161864	0
0	63792	65444.278319867234	1
0	63793	65446.018559161864	0
0	64023	65712.651906707491	1
0	64024	65713.572158725842	0
0	64233	66019.023229484477	1
0	64234	66020.830116539852	0
0	64268	66059.003796022855	1
0	64269	66059.881581486494	0
0	64380	66142.36856178684	1
0	64381	66144.228056677987	0
0	64478	66214.879233216144	1
0	64484	66215.990599658306	0
0	64506	66257.340927335837	1
0	64507	66257.90746429897	0
0	64576	66325.486331859806	1
0	64577	66326.47846023001	0
0	64611	66358.447162412332	1
0	64612	66360.49582474491	0
0	64749	66462.089822890824	1
0	64750	66462.889761959986	0
0	64793	66483.500119684395	1
0	64794	66486.071549618715	0
0	64926	66599.192980749766	1
0	64932	66601.667888306703	0
0	65052	66711.938376937213	1
0	65058	66714.817234437628	0
0	65113	66741.86394097539	1
0	65116	66742.594323486771	0
0	65122	66743.465461651696	1
0	65123	66745.594323486771	0
0	65323	66920.493414422618	1
0	65332	66921.592331590833	2
0	65333	66921.834717003056	1
0	65340	66924.834717003056	0
0	65346	66925.128003177541	1
0	65352	66927.834717003056	0
0	65801	67402.633013469754	1
0	65802	67403.054329083037	0
0	65997	67534.481316182157	1
0	65998	67535.728922511179	0
0	66025	67558.466196145622	1
0	66029	67559.388501087433	2
0	66030	67559.789592380255	1
0	66033	67562.789592380255	0
0	66039	67562.935806171306	1
0	66040	67565.789592380255	0
0	66060	67574.213002557649	1
0	66066	67576.064707633197	0
0	66088	67596.305068176498	1
0	66089	67596.904749590392	0
0	66095	67597.155466356638	1
0	66101	67599.904749590392	0
0	66109	67602.332867906364	1
0	66110	67602.904749590392	0
0	66142	67661.991955549691	1
0	66145	67663.674492540493	0
0	66256	67771.431538428007	1
0	66262	67773.651151679559	0
0	66310	67861.593498096178	1
0	66313	67864.456023250187	0
0	66319	67864.471494377486	1
0	66320	67867.456023250187	0
0	66389	67940.95195863296	1
0	66390	67943.109480004443	0
0	66504	67999.570251018886	1
0	66509	68001.603734057324	0
0	67052	68648.568667838521	1
0	67057	68649.990966900292	0
0	67516	69014.505640304671	1
0	67517	69017.152110723236	0
0	67686	69164.891496428847	1
0	67690	69167.756363175678	0
0	67698	69169.792456353719	1
0	67699	69170.756363175678	0
0	67943	69392.172652455524	1
0	67944	69392.237896365781	0
0	68321	69772.821266647661	1
0	68322	69775.817908380959	0
0	69154	70589.158444936989	1
0	69158	70589.776109942283	2
0	69164	70590.912873834932	1
0	69169	70593.912873834932	0
0	69413	70784.908063131189	1
0	69414	70786.45487898702	0
0	69765	71183.301468560183	1
0	69769	71186.060444716777	0
0	69875	71260.191000321229	1
0	69876	71260.792135197221	0
1	142	162.255740874461	1
1	143	162.527214731626	0
1	149	162.537859600635	1
1	153	163.312832379359	2
1	154	165.527214731626	1
1	157	168.527214731626	0
1	226	259.959858026256	1
1	227	260.431390182711	0
1	968	1036.593662612921	1
1	969	1039.017094850124	0
1	975	1041.419332124268	1
1	976	1042.017094850124	0
1	1050	1083.243078949748	1
1	1051	1084.785531479479	0
1	1059	1085.151749279877	1
1	1060	1087.785531479479	0
1	1143	1177.322913226385	1
1	1149	1178.373697613077	0
1	1344	1334.315169606519	1
1	1347	1336.785923689104	0
1	1556	1517.433451388512	1
1	1557	1519.74740311183	0
1	1687	1681.778455331125	1
1	1688	1681.786445217066	0
1	1764	1749.770487453916	1
1	1765	1750.016826238922	0
1	1771	1751.944563479038	1
1	1774	1753.016826238922	0
1	2095	2080.304746411044	1
1	2096	2080.438707175133	0
1	2284	2298.565115588526	1
1	2285	2300.109585647512	0
1	2314	2313.084714387802	1
1	2315	2313.106572786804	0
1	2401	2393.274261686129	1
1	2404	2395.290677896353	0
1	2422	2413.723651316985	1
1	2423	2414.763305268432	0
1	2515	2547.465401145818	1
1	2516	2547.778219101661	0
1	2606	2605.714432819357	1
1	2607	2608.398549538101	0
1	2632	2617.740546797358	1
1	2635	2618.883341146482	0
1	2921	2912.318198398165	1
1	2922	2913.083889972285	0
1	3024	3017.60112010359	1
1	3025	3017.964640084602	0
1	3192	3191.035902370207	1
1	3195	3192.235727514116	0
1	3572	3594.932117782068	1
1	3573	3595.357357400609	0
1	3588	3597.917613682333	1
1	3589	3598.357357400609	0
1	3661	3637.694578322393	1
1	3662	3639.639915442078	0
1	3733	3709.035467842357	1
1	3734	3710.234260911111	0
1	4142	4151.060021747128	1
1	4143	4151.085602544869	0
1	4433	4481.831456461785	1
1	4434	4484.618969483292	0
1	4454	4538.18756280832	1
1	4455	4539.609205130389	0
1	4503	4602.314937636908	1
1	4504	4604.172338662185	0