file 1839 1683602578                                            
version 3
run General-0-20230508-23:21:08-87866
attr configname General
attr datetime 20230508-23:21:08
attr datetimef 20230508-232108
attr experiment General
attr inifile omnetpp.ini
attr iterationvars ""
attr iterationvarsd ""
attr iterationvarsf ""
attr measurement ""
attr network Design1
attr processid 87866
attr repetition 0
attr replication #0
attr resultdir results
attr runnumber 0
attr seedset 0
config network Design1
config **.source.interArrivalTime exponential(7.2s)
config **.source.numJobs 10000
config **.server1.serviceTime 300s
config **.server2.serviceTime 300s
config **.server3.serviceTime 300s

vector 0 Design1.customQueue1 queueLength:vector ETV
attr interpolationmode sample-hold
attr recordingmode vector
attr title "queue length"
vector 1 Design1.customQueue2 queueLength:vector ETV
attr interpolationmode sample-hold
attr recordingmode vector
attr title "queue length"
vector 2 Design1.customQueue3 queueLength:vector ETV
attr interpolationmode sample-hold
attr recordingmode vector
attr title "queue length"
0	1039 8 0 0 0 0 1 0 0 0 0
1	1047 8 0 0 0 0 1 0 0 0 0
2	1055 8 0 0 0 0 1 0 0 0 0
2	1063 22 9 9 12.199931229958 12.199931229958 1 1 1 1 1
1	1085 23 23 23 45.228070632108 45.228070632108 1 1 1 1 1
2	1108 23 27 27 57.267991274448 57.267991274448 1 2 2 2 4
0	1131 23 31 31 75.975420692561 75.975420692561 1 1 1 1 1
0	1154 23 35 35 83.496630752379 83.496630752379 1 2 2 2 4
2	1177 23 39 39 94.338277414568 94.338277414568 1 3 3 3 9
2	1200 22 43 43 98.95858345785 98.95858345785 1 4 4 4 16
0	1222 24 47 47 109.877642470579 109.877642470579 1 3 3 3 9
0	1246 24 51 51 116.158355074882 116.158355074882 1 4 4 4 16
2	1270 24 55 55 121.470711575525 121.470711575525 1 5 5 5 25
0	1294 24 59 59 122.955375206144 122.955375206144 1 5 5 5 25
1	1318 24 63 63 129.005785086552 129.005785086552 1 2 2 2 4
2	1342 24 67 67 130.173167810563 130.173167810563 1 6 6 6 36
1	1366 24 71 71 150.894155963762 150.894155963762 1 3 3 3 9
2	1390 24 75 75 157.730516964939 157.730516964939 1 7 7 7 49
0	1414 24 79 79 158.177747056297 158.177747056297 1 6 6 6 36
1	1438 24 83 83 159.527214731626 159.527214731626 1 4 4 4 16
1	1462 24 87 87 162.255740874461 162.255740874461 1 5 5 5 25
1	1486 24 91 91 162.537859600635 162.537859600635 1 6 6 6 36
1	1510 24 95 95 163.312832379359 163.312832379359 1 7 7 7 49
1	1534 23 99 99 201.90555490111 201.90555490111 1 8 8 8 64
0	1557 25 103 103 206.426734284246 206.426734284246 1 7 7 7 49
2	1582 25 107 107 209.396743139688 209.396743139688 1 8 8 8 64
2	1607 25 111 111 210.467471478303 210.467471478303 1 9 9 9 81
2	1632 26 115 115 218.288611020627 218.288611020627 1 10 10 10 100
1	1658 25 119 119 231.391307239475 231.391307239475 1 9 9 9 81
1	1683 26 123 123 246.549620605179 246.549620605179 1 10 10 10 100
0	1709 25 127 127 253.234665782869 253.234665782869 1 8 8 8 64
1	1734 26 131 131 257.431390182711 257.431390182711 1 11 11 11 121
1	1760 26 135 135 259.959858026256 259.959858026256 1 12 12 12 144
1	1786 26 139 139 275.254365844668 275.254365844668 1 13 13 13 169
1	1812 26 143 143 283.744530439537 283.744530439537 1 14 14 14 196

