file 1740 1681918177                                            
version 3
run General-0-20230419-11:29:01-45217
attr configname General
attr datetime 20230419-11:29:01
attr datetimef 20230419-112901
attr experiment General
attr inifile omnetpp.ini
attr iterationvars ""
attr iterationvarsd ""
attr iterationvarsf ""
attr measurement ""
attr network PQ_Network
attr processid 45217
attr repetition 0
attr replication #0
attr resultdir results
attr runnumber 0
attr seedset 0
config network PQ_Network
config **.source1.interArrivalTime exponential(1.0s)
config **.source2.interArrivalTime exponential(1.0s)
config **.server.serviceTime exponential(0.3s)
config **.source1.numJobs 1000000
config **.source2.numJobs 1000000
config **.source1.jobName "\"high priority\""
config **.source2.jobName "\"low priority\""
config **.source1.jobType 0
config **.source2.jobType 1

vector 0 PQ_Network.queue1 queueLength:vector ETV
attr interpolationmode sample-hold
attr recordingmode vector
attr title "queue length"
vector 1 PQ_Network.queue2 queueLength:vector ETV
attr interpolationmode sample-hold
attr recordingmode vector
attr title "queue length"
0	1079 8 0 0 0 0 1 0 0 0 0
1	1087 8 0 0 0 0 1 0 0 0 0
1	1095 21 7 7 0.898560388484 0.898560388484 1 1 1 1 1
1	1116 21 8 8 1.353755768188 1.353755768188 1 0 0 0 0
vector 2 PQ_Network.sink lifeTime:vector ETV
attr interpolationmode none
attr recordingmode vector
attr title "lifetime of arrived jobs"
attr unit s
2	1286 34 9 9 1.353755768188 1.353755768188 1 0.557881263622 0.557881263622 0.557881263622 0.31123150430048
1	1320 22 13 13 1.821783519955 1.821783519955 1 1 1 1 1
1	1342 22 14 14 1.939219368953 1.939219368953 1 0 0 0 0
2	1364 35 15 15 1.939219368953 1.939219368953 1 1.040658980469 1.040658980469 1.040658980469 1.0829711136308
0	1399 22 19 19 2.051805262613 2.051805262613 1 1 1 1 1
0	1421 22 20 20 2.502908585214 2.502908585214 1 0 0 0 0
2	1443 35 21 21 2.502908585214 2.502908585214 1 0.681125065259 0.681125065259 0.681125065259 0.46393135452408
0	1478 22 25 25 2.602853749283 2.602853749283 1 1 1 1 1
1	1500 22 28 28 2.608984659937 2.608984659937 1 1 1 1 1
0	1522 22 29 29 2.796010513132 2.796010513132 1 0 0 0 0
2	1544 35 30 30 2.796010513132 2.796010513132 1 0.744205250519 0.744205250519 0.744205250519 0.55384145490005
1	1579 22 32 32 2.968666272197 2.968666272197 1 0 0 0 0
2	1601 35 33 33 2.968666272197 2.968666272197 1 0.365812522914 0.365812522914 0.365812522914 0.13381880192071
2	1636 35 36 36 3.074614013938 3.074614013938 1 0.465629354001 0.465629354001 0.465629354001 0.21681069530739
2	1671 35 42 42 3.111628224387 3.111628224387 1 0.017515400728 0.017515400728 0.017515400728 0.00030678926266242
2	1706 33 48 48 3.7365198922 3.7365198922 1 0.095506842253 0.095506842253 0.095506842253 0.0091215569171394

