file 39331347 1683846612                                        
version 3
run General-0-20230511-19:09:23-7211
attr configname General
attr datetime 20230511-19:09:23
attr datetimef 20230511-190923
attr experiment General
attr inifile omnetpp.ini
attr iterationvars ""
attr iterationvarsd ""
attr iterationvarsf ""
attr measurement ""
attr network FinalExam
attr processid 7211
attr repetition 0
attr replication #0
attr resultdir results
attr runnumber 0
attr seedset 0
config network FinalExam
config **.source1.interArrivalTime exponential(0.5s)
config **.source1.numJobs 100000
config **.source2.interArrivalTime exponential(0.3333s)
config **.source2.numJobs 100000
config **.source3.interArrivalTime exponential(0.3333s)
config **.source3.numJobs 100000
config **.server1.serviceTime exponential(0.1s)
config **.server2.serviceTime exponential(0.1s)
config **.server3.serviceTime exponential(0.1s)
config **.server4.serviceTime exponential(0.1s)

vector 0 FinalExam.passiveQueue1 queueLength:vector ETV
attr interpolationmode sample-hold
attr recordingmode vector
attr title "queue length"
vector 1 FinalExam.passiveQueue2 queueLength:vector ETV
attr interpolationmode sample-hold
attr recordingmode vector
attr title "queue length"
vector 2 FinalExam.passiveQueue3 queueLength:vector ETV
attr interpolationmode sample-hold
attr recordingmode vector
attr title "queue length"
vector 3 FinalExam.passiveQueue4 queueLength:vector ETV
attr interpolationmode sample-hold
attr recordingmode vector
attr title "queue length"
0	1461 8 0 0 0 0 1 0 0 0 0
1	1469 8 0 0 0 0 1 0 0 0 0
2	1477 8 0 0 0 0 1 0 0 0 0
3	1485 8 0 0 0 0 1 0 0 0 0
vector 4 FinalExam.customSink lifeTime:vector ETV
attr interpolationmode none
attr recordingmode vector
attr title "lifetime of arrived jobs"
attr unit s
3	1647 918219 21 210044 0.519045420999 2464.12079089793 32768 0 49 163470 1613748
4	919866 1349170 24 343660 0.528084524315 4026.217656628928 32768 0.002345734801 5.470275735651 28336.992873797 36440.850094704
3	2269036 951552 210048 420616 2464.198476665362 4925.870128076909 32768 0 32 163996 1646496
2	3220588 930856 12 441062 0.418601721657 5169.379118293474 32768 0 16 58068 205684
0	4151444 933363 62 546632 1.302030769843 6455.185015107983 32768 0 14 50302 150348
3	5084807 950224 420627 636593 4925.961855583641 7514.620649317652 32768 0 27 140482 1138524
4	6035031 1369054 343663 687223 4026.259990023476 8121.117733846652 32768 0.003459461405 4.501069769393 27317.689596844 33331.409444956
3	7404085 951036 636608 849900 7514.706872890608 10057.409304753901 32768 0 30 144330 1241948
2	8355121 949688 441088 885183 5169.623468487719 10481.663845026954 32768 0 19 60484 228336
4	9304809 1389772 687269 1030866 8121.471268179287 12240.179096503531 32768 0.000540566794 3.660248840287 26777.734497879 31897.904991364
3	10694581 993375 849903 1065276 10057.611149114053 12649.089536285887 32768 0 25 145024 1178248
0	11687956 968010 546636 1101264 6455.376979586402 13077.200585163198 32768 0 14 49896 153684
3	12655966 1016464 1065277 1281340 12649.207960135401 15214.744573252816 32768 0 31 151402 1422296
2	13672430 1004184 885194 1353149 10481.778897205366 16066.117270133266 32768 0 15 52738 168456
4	14676614 1434392 1030877 1374570 12240.33471245607 16342.082716168422 32768 0.002418574 3.853243453007 25870.781627735 29999.939419959
3	16111006 1015674 1281342 1494872 15214.787369113208 17746.39469909593 32768 0 27 142046 1163284
0	17126680 1012112 1101273 1653392 13077.365071613072 19623.1372110835 32768 0 12 48400 139628
3	18138792 1016056 1494873 1709818 17746.477494008683 20307.599260971767 32768 0 34 148232 1400988
4	19154848 1434460 1374573 1718603 16342.129647490389 20409.145476217809 32768 0.001338201711 4.243996294218 27206.248526296 33214.003257168
2	20589308 1012418 1353152 1809326 16066.33768233786 21467.015057409183 32768 0 14 58446 205844
3	21601726 1016477 1709839 1924794 20307.80779916955 22850.667290319397 32768 0 29 151950 1386396
4	22618203 1434471 1718606 2062940 20409.167890140124 24499.997575778481 32768 0.00112401508 4.471602438274 27190.741820748 33128.202794464
3	24052674 1016242 1924797 2139698 22850.812862514542 25417.143017601199 32768 0 27 147650 1263452
1	25068916 981740 232 2191592 3.062352454082 26031.785496755245 32768 0 7 27102 44748
0	26050656 1012160 1653483 2196793 19624.178537639163 26096.033228810505 32768 0 11 48542 140284
2	27062816 1012189 1809328 2262819 21467.03555221324 26885.428773084218 32768 0 13 56914 194464
3	28075005 1016056 2139702 2357143 25417.164200509924 28016.806921102769 32768 0 33 147514 1259388
4	29091061 1434528 2062943 2407022 24500.051111704887 28618.958997371624 32768 0.002822168868 3.778116411344 26586.803919738 31494.079845126
3	30525589 1015777 2357147 2574348 28016.831690165675 30623.459303874516 32768 0 31 140376 1183232
2	31541366 1012469 2262821 2720446 26885.485695861501 32345.193917373673 32768 0 16 57728 210868
0	32553835 1012302 2196798 2743716 26096.076662313337 32617.904619288602 32768 0 14 50278 154608
4	33566137 1434468 2407037 2751079 28619.202235861895 32702.316860845024 32768 0.003186791792 4.779414737771 26956.974478628 32879.090311688
3	35000605 1016242 2574350 2787292 30623.554467655123 33139.52718729244 32768 0 44 150944 1454892
4	36016847 1434531 2751082 3138955 32702.324127508624 47373.830177710575 32768 0.005280408069 4.25782696228 14038.96795482 9514.1684090236
0	37451378 539532 2743723 3199984 32617.932922450114 49938.880518500387 17464 0 10 16490 35020
1	37990910 381122 2191613 3199992 26031.995847603594 49939.122272708931 12338 0 6 9439 14709
2	38372032 269362 2720489 3199747 32345.77156469705 49926.095455067897 8720 0 8 10650 27516
3	38641394 467234 2787298 3199999 33139.619747121862 49939.421799880792 15118 0 26 17757 105051
4	39108628 222718 3138958 3200003 47374.166971910025 49939.574060453195 5088 0.007656861709 1.520497194299 1834.3216511371 889.69958359026

